version 3
run LowArrivalRate-2-20231107-16:02:56-12131
attr configname LowArrivalRate
attr datetime 20231107-16:02:56
attr datetimef 20231107-160256
attr experiment LowArrivalRate
attr inifile omnetpp.ini
attr iterationvars $0=9123
attr iterationvarsd 9123
attr iterationvarsf 9123-
attr measurement $0=9123
attr network fifonet
attr processid 12131
attr repetition 0
attr replication #0
attr resultdir results
attr runnumber 2
attr seedset 9123
config description "low job arrival rate = 0.1 load"
config seed-set 9123
config **.gen.sendIaTime exponential(1s)
config **.gen.serviceTime exponential(0.1s)
config output-vector-file fifo-r1.vec
config network fifonet
config sim-time-limit 2000s
config cpu-time-limit 300s
config cmdenv-express-mode true
config cmdenv-interactive true

vector 0 fifonet.FIFONet.sink "queueing time vector" ETV
0	4	0.05804463708	0.05804463708
0	8	1.064229298922	0.034643974644
0	12	1.563294179467	0.097829117241
0	16	1.745551148012	0.070598162411
0	20	2.684105723741	0.112062615549
0	24	3.189893101921	0.015627392169
0	28	6.518886029825	0.055478312543
0	32	6.962844881296	0.027329599944
0	36	7.997612323147	0.06717530638
0	42	8.660560393447	0.201842516269
0	44	8.822226616511	0.325315331451
0	48	9.648569356349	0.08202013965
0	52	10.059310096619	0.109620436215
0	56	11.697464077576	0.044327171614
0	60	13.320071692021	0.091892925796
0	66	14.995834276164	0.170370362701
0	68	15.213915341217	0.240499882513
0	72	16.395068271452	0.074317763929
0	76	17.02606467915	0.008213143681
0	80	18.212110951032	0.01649303827
0	84	19.514005386927	0.077015049312
0	90	20.621832565702	0.539478024157
0	92	20.622844379217	0.169850070847
0	96	22.804042043827	0.043642245962
0	100	23.101809086999	0.040028304312
0	104	28.846415732699	0.098020937185
0	108	29.732290671913	0.073955228087
0	112	29.779552516152	0.021730570265
0	116	30.91086966342	0.174027985504
0	120	31.826600565738	0.047368066056
0	126	31.989261663817	0.036761440064
0	128	32.065656221825	0.077077864627
0	132	33.151056661361	0.286734469743
0	136	36.951852939452	0.113976705698
0	140	37.811217478111	0.016394253171
0	146	38.98631845382	0.063525035708
0	148	39.138059983291	0.197472439351
0	152	39.844447896042	0.027970778325
0	156	40.199287527675	0.159832056733
0	160	40.900542575273	0.11866503037
0	166	41.995010610833	0.030541034749
0	168	42.056788841165	0.07789495704
0	172	43.522903733774	0.046750733186
0	176	44.886445513588	0.058058278515
0	180	45.59728144681	0.20950944317
0	184	46.294233869059	0.04472205886
0	188	48.924870417693	0.145631364999
0	192	49.065267495006	0.032553229158
0	196	50.186381866577	0.000993953837
0	200	51.070214012273	0.003185692794
0	204	51.554549742112	0.255378192982
0	208	51.737973577168	0.049383591383
0	212	52.723310803715	0.016110768646
0	216	53.698671391932	0.033472950376
0	220	55.177157220495	0.02152091255
0	224	55.96553031442	0.150721408542
0	228	56.17490655918	0.028276691273
0	232	56.63468024216	0.067262235157
0	236	56.811392047855	0.021072805212
0	240	57.347576092544	0.039599157844
0	244	62.243787232022	0.066004776296
0	248	62.278413747573	0.014001643098
0	252	63.505979240477	0.065330751213
0	256	64.471510893298	0.048766669577
0	260	65.050034831804	0.03643698056
0	264	66.371190671492	0.005577930185
0	268	66.888501178191	0.030830087246
0	272	67.651132187354	0.150235497172
0	276	68.355119029734	0.003231695017
0	280	68.403339273323	0.005373556257
0	284	68.989821513161	0.179060936074
0	292	70.809932482312	0.404656897223
0	294	70.948712831806	0.489612069525
0	298	71.122634473029	0.623658143604
0	300	71.295301081744	0.180424895034
0	304	72.053068125329	0.00775414504
0	308	72.753371790192	0.273102172194
0	312	73.799139804527	0.012689614826
0	316	74.441755087801	0.069224040725
0	320	74.960531634055	0.291719644236
0	324	75.265817981788	0.021112971816
0	328	76.931965411811	0.023223958399
0	332	77.267063577459	0.085758432718
0	342	77.577337996808	0.073991983862
0	344	77.671218471092	0.123108521777
0	346	77.783104933316	0.229066470581
0	348	77.956386426127	0.402034886394
0	352	78.203249313918	0.029687797462
0	356	78.49770651196	0.060300221657
0	360	79.810255444263	0.044815471518
0	364	79.920938112919	0.006985527008
0	368	80.469971294825	0.311275000631
0	372	81.173172878126	0.094314648619
0	376	81.271685855167	0.069497754471
0	380	81.664702488522	0.044174930729
0	384	81.916122125034	0.112132424934
0	388	82.322337602741	0.300283670239
0	392	82.621207275303	0.234685181182
0	398	83.714535238208	0.239368215508
0	402	83.817159258702	0.165093098992
0	404	84.005739171801	0.202950431986
0	408	86.104031346997	0.025027258547
0	412	86.459790822992	0.033282508025
0	416	86.755838578979	0.142436394348
0	420	90.372671820709	0.070806858269
0	424	92.812496100371	0.181222441484
0	428	92.925860967639	0.04094108838
0	432	93.709291580961	0.073062891526
0	436	95.549394676259	0.011925391045
0	440	97.325833671852	0.037022396666
0	444	98.612026787371	0.293983844984
0	448	99.045708584415	0.30156294326
0	452	103.147834422706	0.145377426647
0	456	103.361097653304	0.127082550898
0	460	104.856904628843	0.108484707996
0	466	107.228031159541	0.309742948748
0	468	107.283722296673	0.222290437774
0	472	107.386652903929	0.035381981324
0	476	108.673349259226	0.082869915055
0	480	109.856877958286	0.055282772099
0	484	111.016192775236	0.139169769755
0	488	112.062297743523	0.002805345864
0	492	114.27974644187	0.028478543756
0	496	114.781738791755	0.141126283267
0	500	116.249466589382	0.177817152333
0	504	116.552279579317	0.169978701801
0	508	117.717438023907	0.001113505799
0	512	117.921811192322	0.031574104711
0	516	121.747471904322	0.031022004915
0	520	122.082521309334	0.130153354008
0	524	122.377864571131	0.252350610393
0	528	122.811431584169	0.162111636254
0	532	123.284926285347	0.017247540195
0	536	123.785170088564	0.106859923573
0	540	124.284005443074	0.376919401439
0	544	124.588855365341	0.039073399201
0	548	126.776238395145	0.080805391142
0	552	127.142458755847	0.292663681904
0	556	127.825857577052	0.115149797152
0	560	128.267680996082	0.368930831207
0	564	128.657265553556	0.026123105418
0	568	129.149868480006	0.092699746349
0	572	129.580532977487	0.073348019221
0	576	129.937935705911	0.034749550623
0	580	132.666066594655	0.092266563156
0	584	134.512402673284	0.034951035655
0	588	134.765738922736	0.032168035102
0	592	135.246949927127	0.030760524327
0	596	139.03594119209	0.081446213114
0	600	140.092222973485	0.071084194741
0	604	141.89479424013	0.136154964998
0	610	142.518682488815	0.315282142135
0	612	142.589422029634	0.364356385125
0	616	143.127346462939	0.301090312707
0	620	144.335900601855	0.232859810828
0	624	145.177635781431	0.012813487985
0	628	145.749837877596	0.125871487653
0	638	148.794354393725	0.240199755433
0	640	148.87006787001	0.315369750702
0	642	148.919963077039	0.349341346332
0	644	148.98633122014	0.348393711163
0	648	149.108265841496	0.000557738103
0	652	149.260287116343	0.015655604749
0	656	149.998611225088	0.002818862015
0	660	152.474381878303	0.064530908707
0	664	153.264887541465	0.145916996069
0	668	153.589759657947	0.010381719211
0	672	156.296281919373	0.125172943204
0	676	156.88071622683	0.16115944658
0	680	157.110677283914	0.151494790062
0	684	159.731210999083	0.100157056139
0	688	160.724990060495	0.079363426219
0	692	161.06303374214	0.027020142073
0	696	161.340453205663	0.033359794321
0	700	163.600942627638	0.090775301624
0	704	165.064339007513	0.041074478437
0	708	165.199769100361	0.046514880539
0	712	167.143914740699	0.071950454454
0	718	167.330718150385	0.077806110385
0	720	167.528249910945	0.267783123112
0	724	170.619909092705	0.086828091813
0	728	173.381871877564	0.00174596577
0	732	177.425072014106	0.021279007945
0	736	178.361954387429	0.070571101899
0	740	178.630232767103	0.056206154654
0	744	178.920575440437	0.135933483908
0	748	181.986775310268	0.142117540043
0	752	182.876126707717	0.250429146541
0	756	184.062494722443	0.304884829489
0	760	185.143576848756	0.056487750831
0	764	185.298505903077	0.06978706862
0	768	185.522771514032	0.013105321708
0	772	186.801986700269	0.142078008225
0	776	187.185026610806	0.118181519387
0	780	187.5108511579	0.011945213176
0	784	189.860568342456	0.062452931414
0	788	191.261358223247	0.337158999696
0	792	192.371062843561	0.15022918871
0	796	193.231696925645	0.032737808962
0	800	193.495308484095	0.002950275224
0	804	194.12335956095	0.136233890857
0	808	195.628039930721	0.044846630125
0	812	195.966398345749	0.076429627441
0	816	196.050460944648	0.015156951583
0	820	201.204714580378	0.040538351105
0	824	201.826026388228	0.06554126963
0	830	202.272883938231	0.1360952915
0	832	202.643269386015	0.425937756236
0	836	203.140480983541	0.100376010813
0	840	203.631600834823	0.279514434765
0	844	203.845661660774	0.052256232861
0	848	205.144331722923	0.138521778711
0	852	206.40767205017	0.080987462377
0	856	207.130011829967	0.127850709586
0	860	210.607014034303	0.023653137432
0	864	214.489500910994	0.171591662627
0	868	214.609879135745	0.091702060349
0	872	214.822268690064	0.048944160487
0	876	214.961513293028	0.025284005282
0	880	215.672269483349	0.004548165645
0	884	216.310599822592	0.033412363235
0	888	217.026634437445	0.106898790852
0	892	217.166120490916	0.036575899671
0	898	219.924348996395	0.164526549667
0	900	220.098730832073	0.23464613326
0	906	220.454546646207	0.105852356699
0	908	220.552637284833	0.187260365446
0	912	221.646433600741	0.115103349891
0	916	222.41217439784	0.055542162654
0	922	223.677408671053	0.340986728491
0	924	223.787814613639	0.13941097529
0	928	223.99383693813	0.06140411458
0	932	225.019547516023	0.072949846608
0	936	225.174351383035	0.094517315416
0	942	225.499380646923	0.155623910579
0	944	225.757947515567	0.372492226873
0	948	226.60376468345	0.104744992055
0	952	227.945290024006	0.131137581919
0	956	228.322074480461	0.008610476702
0	960	228.748899034845	0.046956341398
0	966	229.952377138269	0.187055627018
0	968	229.975873146782	0.174876821138
0	974	230.473686974766	0.127482500257
0	976	230.570074404397	0.21178907195
0	980	230.874531320463	0.074083419329
0	984	232.679617019199	0.287322245932
0	988	234.003880568911	0.07464886979
0	992	234.289010450449	0.127615849159
0	996	234.64084243915	0.283346274492
0	1000	235.435494170636	0.049290413758
0	1004	235.477448414825	0.038274857668
0	1008	236.896836305906	0.084500845089
0	1012	236.966085927753	0.057402218413
0	1016	237.200323642901	0.079878025759
0	1020	237.883291941686	0.096313112873
0	1024	239.283032865405	0.390243099112
0	1028	239.653625036288	0.002186488679
0	1032	240.48474924296	0.039973816463
0	1036	244.448662635067	0.009293196405
0	1042	245.15410187074	0.448228377919
0	1046	245.593143973373	0.465071959658
0	1048	245.654909175007	0.066123086265
0	1052	246.653238788233	0.340323379426
0	1056	246.680028191181	0.018628677072
0	1060	247.282170723129	0.008865372544
0	1064	251.686942577803	0.001603071186
0	1070	252.240651835474	0.08811026013
0	1072	252.291639303767	0.138884974953
0	1076	252.702044929053	0.067553319299
0	1080	253.058697246359	0.111041552524
0	1084	253.397401064565	0.266168076015
0	1088	254.12906850875	0.010830390019
0	1094	254.841848090566	0.228690898476
0	1096	254.89839414894	0.098671309424
0	1100	255.818317156653	0.470410795604
0	1104	256.882647886291	0.003931672106
0	1108	257.756770785848	0.000966943774
0	1112	258.195509697919	0.186072411928
0	1118	258.538389428773	0.291201189232
0	1120	258.573039642782	0.220245613005
0	1124	259.634048939162	0.135711902961
0	1128	261.691956116618	0.060900583748
0	1132	263.945866138607	0.123665699547
0	1136	265.235328240327	0.067235564134
0	1140	265.394803493989	0.106342977605
0	1144	265.94951884794	0.103419011054
0	1148	266.916771843564	0.111224067099
0	1152	268.481148449819	0.010479216722
0	1156	269.243293459124	0.047568522792
0	1160	269.784075039266	0.278807860632
0	1164	272.458575323106	0.022114490485
0	1168	273.148738627273	0.187792583067
0	1172	277.155380916182	0.04340621348
0	1176	277.245607060342	0.040840510822
0	1180	278.514427226118	0.053736194423
0	1184	279.280746457254	0.272675479308
0	1188	279.34540778432	0.020565785004
0	1192	279.560437654064	0.026579591041
0	1196	279.634727272781	0.040447330559
0	1200	279.889008990494	0.012815265802
0	1204	282.120798157541	0.026778805142
0	1208	282.887544654457	0.093671719489
0	1212	285.1161711613	0.054784138678
0	1216	288.777358266262	0.133928039105
0	1220	289.426834997027	0.312656877063
0	1224	289.505562711171	0.002494229559
0	1228	289.756934026874	0.1610002853
0	1232	289.988548837769	0.021919029923
0	1236	290.766529355872	0.065355704995
0	1240	292.013736095209	0.0765656542
0	1244	292.35013351648	0.134817954926
0	1248	292.403408454443	0.016801972647
0	1252	293.403045024901	0.030283517545
0	1256	294.877556149714	0.434758299595
0	1262	295.476961545024	0.387958654057
0	1268	295.753878156223	0.576334018052
0	1270	295.769801933681	0.139572138564
0	1272	295.920102665114	0.260164209172
0	1276	296.032448861182	0.053183530868
0	1280	297.506471612544	0.139116334999
0	1284	297.824461023151	0.131603705574
0	1288	298.495822959524	0.073106141427
0	1292	300.319438751396	0.065676892963
0	1296	300.738261524379	0.158657334629
0	1300	302.176118492578	0.171901371573
0	1304	303.284241604186	0.017566148679
0	1308	304.756308752614	0.078568254586
0	1312	305.911249124916	0.01932393081
0	1318	306.439613804368	0.178296399371
0	1320	306.463729624529	0.055145464968
0	1326	307.098009412732	0.092912905014
0	1328	307.129756147394	0.052675644296
0	1332	310.667813142423	0.058243136181
0	1336	311.51636191651	0.156564541166
0	1340	312.173450938695	0.037758535314
0	1344	316.980354412109	0.107679507845
0	1348	317.270634488749	0.031136617848
0	1354	317.410618990868	0.104271851757
0	1358	317.586086823115	0.242264461304
0	1360	317.695080617162	0.234801188787
0	1364	317.795759393221	0.033558863296
0	1368	318.447227051757	0.03283418289
0	1372	319.447144083893	0.129440084187
0	1376	319.677284521246	0.017939789647
0	1380	320.000599399765	0.030097466108
0	1384	322.147580038252	0.03917290738
0	1388	323.579969552335	0.023252348426
0	1394	324.859135946418	0.103015884508
0	1396	324.864365933214	0.045213853215
0	1402	326.843396944331	0.170797593615
0	1404	326.886329705582	0.051092753971
0	1408	328.07445092654	0.09824836799
0	1412	328.665550419242	0.052692562016
0	1418	330.387945027191	0.544584649663
0	1420	330.62140220001	0.45918094075
0	1424	333.361145589488	0.003220548669
0	1428	334.83901294869	0.035019695252
0	1432	336.517622033926	0.09100423325
0	1436	337.08981176289	0.068556328587
0	1442	342.536767502849	0.108482134207
0	1444	342.544613745439	0.015888582726
0	1448	343.340885930593	0.050046290555
0	1452	344.435842798652	0.124234424046
0	1456	345.009601726554	0.390821034597
0	1460	345.738071824856	0.087042130564
0	1464	346.105212847924	0.0794942426
0	1468	346.925380021947	0.107539643712
0	1472	348.708785055964	0.367756100822
0	1476	349.232947315662	0.224543146872
0	1480	350.050720138188	0.027509453798
0	1484	351.074898144174	0.049697062717
0	1488	358.020596210485	0.111066544392
0	1492	358.752534304704	0.023586270425
0	1496	360.774990723231	0.171465878509
0	1500	361.251039953345	0.043552786419
0	1504	361.63903126412	0.279477804191
0	1508	363.64282026923	0.321776283204
0	1512	366.127284009351	0.021889048976
0	1516	366.843492990598	0.09856304973
0	1520	367.152534042061	0.003752803422
0	1524	367.410848560881	0.217204119628
0	1528	368.075884804788	0.260097867265
0	1532	368.2065850881	0.080378999073
0	1536	369.362013876232	0.200364056276
0	1540	372.098355981999	0.191041069979
0	1546	372.425955435194	0.02950295385
0	1548	372.431453226419	0.013880616159
0	1552	378.381838426641	0.073457397987
0	1556	379.920787382355	0.044541953789
0	1560	380.818024157486	0.118230092139
0	1564	382.268687767723	0.212147835856
0	1568	382.84726799565	0.006605994728
0	1574	383.802138434401	0.076354531332
0	1576	384.029350396369	0.265117409378
0	1580	387.758722359677	0.520792360263
0	1584	390.110696413309	0.071436370102
0	1588	390.801694557832	0.104460451676
0	1592	391.631690306265	0.175055668084
0	1596	392.428206105816	0.04638324386
0	1602	394.773474361714	0.186447840187
0	1606	394.935405371483	0.334641988689
0	1608	394.942588331684	0.074539871695
0	1612	396.397346042312	0.001029979633
0	1616	396.698054215871	0.044913485742
0	1620	397.945979674427	0.198378360419
0	1624	399.189243453372	0.174312043794
0	1630	400.939443502255	0.195765111554
0	1632	401.009285987977	0.181228282381
0	1636	401.302136744201	0.151500033717
0	1640	403.161012525699	0.096604178454
0	1646	404.492009296732	0.192135081724
0	1650	404.575518056298	0.232884906164
0	1652	404.680946288283	0.109151978361
0	1656	405.090250676119	0.01815472507
0	1660	405.676874251305	0.266025053558
0	1664	406.311178391988	0.098506964897
0	1668	407.014615320677	0.539139890311
0	1672	408.274891766078	0.123319613557
0	1676	408.771625426872	0.063754242966
0	1680	410.31467247847	0.020546019942
0	1684	412.274574987142	0.073261974734
0	1688	412.72198312598	0.044004459313
0	1692	414.309137369921	0.322683024838
0	1696	415.461943445451	0.059880068905
0	1700	415.925855518178	0.121375067209
0	1704	416.292397259245	0.087892507699
0	1708	416.7019455318	0.050427902227
0	1712	417.315344052918	0.115932386229
0	1716	418.066124442727	0.063996852825
0	1720	419.672676610969	0.008570010771
0	1724	421.354968984787	0.201439285717
0	1732	423.420647053728	0.113112077524
0	1736	423.504446270289	0.174540749531
0	1738	423.651550939622	0.252499962664
0	1740	423.67874305169	0.247866698111
0	1744	427.13899908146	0.053756148985
0	1748	430.12813030504	0.032405601928
0	1752	430.744601163541	0.172033980651
0	1756	431.382124723183	0.063122019983
0	1762	432.392342973942	0.13396409064
0	1764	432.425198417932	0.091868071771
0	1768	433.067283126662	0.039564361339
0	1772	433.424672149986	0.040608964964
0	1778	435.59362898767	0.187700832539
0	1782	435.721309737572	0.231825428845
0	1784	435.803080333062	0.097704296659
0	1788	440.859864026199	0.003363889744
0	1792	441.354957370008	0.013131588507
0	1796	444.0097744974	0.038708634513
0	1802	444.358006507168	0.073255322266
0	1804	444.606058166156	0.318495006015
0	1808	446.590288465203	0.096073006094
0	1812	447.830209797737	0.127993878695
0	1816	448.04855306785	0.17501460742
0	1820	449.475802976202	0.036350083734
0	1824	450.105196131347	0.032945160034
0	1830	452.06363731464	0.195811951456
0	1832	452.301477305455	0.285010796169
0	1836	452.891866512031	0.199262812355
0	1840	453.826452059229	0.014744782024
0	1844	455.071518861434	0.166710445089
0	1848	456.671020859292	0.055311134668
0	1852	457.825172644531	0.014574388979
0	1856	458.668545556731	0.051557766231
0	1860	460.546700829275	0.054196758982
0	1864	463.545860896067	0.009067733031
0	1868	464.683492607286	0.001102618692
0	1872	464.957627236615	0.030888901693
0	1876	466.292358544969	0.173294576145
0	1880	466.704831261148	0.003578591334
0	1884	467.233615588221	0.139399670038
0	1888	467.619070184071	0.051855427981
0	1892	468.111208654933	0.016420743592
0	1896	469.611894098613	0.074844199017
0	1900	470.509758013314	0.035305057862
0	1904	471.175053681596	0.022503205319
0	1908	471.965697227868	0.108090717972
0	1912	473.884137970637	0.24644373525
0	1916	474.26394137691	0.076598323922
0	1920	475.298100319478	0.116771624499
0	1924	476.920247336381	0.003258428264
0	1928	477.674744592027	0.012212206307
0	1932	478.4979989745	0.323316801709
0	1936	479.164674825841	0.078832508936
0	1940	484.491630919929	0.165467885959
0	1944	486.567363890673	0.032298877287
0	1948	486.847129480784	0.095717136546
0	1952	488.145730784322	0.262867985613
0	1958	488.829245521838	0.126149160758
0	1960	488.967632768873	0.205928763278
0	1964	489.329832001738	0.014976413584
0	1968	489.596555521217	0.024289978649
0	1972	490.749798237339	0.047295459802
0	1976	491.171514417015	0.081308918616
0	1980	491.621299536241	0.016664218885
0	1984	494.073768120907	0.038830271277
0	1988	495.202694381766	0.199607256081
0	1994	495.964604074405	0.158042907172
0	1996	496.080525921702	0.157381264147
0	2000	498.417949232486	0.001626877847
0	2004	501.072522041169	0.011098889278
0	2008	502.866676733142	0.030832224371
0	2012	503.434879886934	0.002383901737
0	2016	504.213258150887	0.117300661878
0	2020	504.58471817443	0.213654436872
0	2024	505.32937677629	0.031434652151
0	2028	505.861137221203	0.123768308693
0	2032	506.07082216744	0.091286548861
0	2036	506.178881367955	0.107249408426
0	2040	506.808784754401	0.20802803426
0	2044	507.106568384548	0.013519355263
0	2048	507.80205715561	0.113015853074
0	2052	507.973927802852	0.072781500102
0	2056	509.620245756046	0.012141802063
0	2060	510.492157501452	0.066687964721
0	2064	511.163642252172	0.012351967404
0	2068	511.593661436034	0.030345257516
0	2072	512.141058619716	0.117528599193
0	2076	512.937649432457	0.070349689513
0	2082	513.500448086218	0.012255396436
0	2084	513.528258542505	0.033906150726
0	2088	514.609601270159	0.076547438854
0	2092	515.418202199476	0.003803625073
0	2096	518.692227617658	0.235709853644
0	2100	519.87150759234	0.375954123296
0	2104	520.673685541101	0.000730519574
0	2108	521.883778112622	0.16611634771
0	2112	522.884429574083	0.126769767153
0	2116	523.074231937526	0.121549431052
0	2120	525.453119501652	0.103307594812
0	2126	525.849669879485	0.365563027164
0	2128	525.899300825894	0.098282430721
0	2132	526.406431655035	0.09974873818
0	2136	527.126214284062	0.092245463667
0	2140	528.050118170379	0.080424778278
0	2144	531.645534072503	0.039188589202
0	2150	533.348294146416	0.218901414588
0	2152	533.505821434397	0.293864102064
0	2156	533.716947559275	0.068402091422
0	2160	533.794074595768	0.012072224485
0	2164	534.006209162481	0.054212216839
0	2168	534.330215158309	0.297495324832
0	2172	535.966610014949	0.066294627865
0	2176	536.380859020245	0.017032320772
0	2180	537.756723643738	0.014089572355
0	2184	538.581239825915	0.270252097061
0	2188	539.572064858403	0.227555701274
0	2192	540.085079158579	0.055348138534
0	2196	540.703246520622	0.050386720128
0	2200	541.118823253487	0.220989322626
0	2204	542.544788726382	0.118619300634
0	2208	543.310171058647	0.030343852338
0	2212	544.143302268519	0.100017094913
0	2216	544.221614901093	0.044647162864
0	2220	545.630567840351	0.000231118223
0	2224	550.854142131033	0.070722660777
0	2228	551.212058743961	0.019317877765
0	2232	551.400539963836	0.046973605621
0	2236	552.320050879062	0.162252064703
0	2240	553.661142160077	0.002954139974
0	2244	554.225145725001	0.005610074571
0	2248	554.380697490666	0.100301246263
0	2252	556.343272347268	0.26017186514
0	2258	557.357310001347	0.067255514172
0	2260	557.498837444327	0.169673304586
0	2264	561.191660856833	0.107722243711
0	2268	561.266256814204	0.009161819471
0	2272	562.575143273401	0.336615132117
0	2276	563.015335288044	0.21029550116
0	2280	563.905703170077	0.070916420702
0	2284	565.554775082197	0.122392152569
0	2288	566.197897421157	0.028030773032
0	2292	566.788580296691	0.070881864955
0	2296	568.14729464369	0.011816437718
0	2300	570.0995111579	0.130388471516
0	2304	572.349521882178	0.277473467066
0	2310	572.988064326615	0.064023116322
0	2312	572.988113263267	0.033621041546
0	2318	573.172632026539	0.058408079966
0	2322	573.333144529139	0.176537228814
0	2324	573.454243602078	0.134029381902
0	2328	573.661916923446	0.088272364492
0	2332	574.725953334713	0.006157037083
0	2336	575.905946916999	0.135522541159
0	2340	578.7695822495	0.134584868665
0	2344	579.164912791422	0.091612706905
0	2350	579.735032612732	0.156112310977
0	2356	579.974151898123	0.252076816986
0	2358	580.425873140041	0.640101350779
0	2360	580.640032204404	0.845046825593
0	2364	581.416352950177	0.028835682967
0	2368	582.43704801009	0.020127745929
0	2374	583.544427157939	0.051402303864
0	2376	583.659145458748	0.154678399978
0	2380	583.812867291897	0.095395999932
0	2384	583.912208052581	0.043566448182
0	2388	585.426133253902	0.060420866199
0	2392	585.48107440842	0.043467239021
0	2396	585.713252262498	0.090109396056
0	2400	586.354753774464	0.076534254255
0	2404	586.715224542232	0.002653473115
0	2410	587.11602932479	0.245295230557
0	2412	587.125468555533	0.114166028172
0	2416	587.695552541577	0.25163851756
0	2420	587.944250180204	0.113577878799
0	2424	588.540603440646	0.164042246072
0	2428	588.675687913555	0.074225768192
0	2432	589.78248195289	0.00333952596
0	2436	590.342366757705	0.029509227852
0	2440	590.372515738778	0.021426894857
0	2446	590.984033147362	0.061598659107
0	2448	591.227347807108	0.261433983554
0	2452	593.102171306246	0.264802433859
0	2456	593.164831025123	0.040598848174
0	2460	595.243099112002	0.048499784766
0	2464	596.48516636527	0.004113257896
0	2468	597.149837309319	0.031629937363
0	2472	597.601291886643	0.04726224401
0	2478	598.214248759063	0.070007439753
0	2480	598.236767397134	0.046266830527
0	2484	599.614276779486	0.111782124797
0	2488	599.985080140814	0.020766941113
0	2492	600.145106643901	0.095418396972
0	2496	600.601368118041	0.136701583183
0	2500	601.461332893192	0.115379798508
0	2504	602.615474232507	0.042155880447
0	2508	606.013214777594	0.039360886657
0	2512	606.084625413289	0.048191917139
0	2516	606.143937076497	0.036447732852
0	2520	607.242566697614	0.103765982821
0	2524	608.463043669454	0.094948441073
0	2528	609.14031776422	0.019313957226
0	2532	609.977039317308	0.125228775429
0	2536	610.482883293396	0.150011991033
0	2540	610.864128519252	0.024501955469
0	2544	612.0893437059	0.005663961022
0	2548	612.76015205472	0.046288337074
0	2552	615.116245567279	0.20016464782
0	2556	615.907976573043	0.076933852025
0	2560	616.346795601908	0.009502189947
0	2564	617.265358683805	0.082245601216
0	2568	617.657680730452	0.039654733544
0	2572	618.992291247203	0.015473998532
0	2576	619.166683436111	0.006779011667
0	2584	619.569255323474	0.081050093531
0	2588	619.659038120149	0.132171407582
0	2590	619.896316899527	0.328349453093
0	2592	619.91772486894	0.265638002982
0	2596	620.87366587661	0.445844446743
0	2600	621.741028568295	0.033037675817
0	2604	622.452764041853	0.111080092397
0	2608	623.742834487788	0.01905368214
0	2612	624.615514447718	0.027597364976
0	2616	627.654478076486	0.24308638127
0	2620	629.324922282585	0.063104927546
0	2624	630.623670948025	0.066314679313
0	2628	630.720069332105	0.021232886001
0	2632	633.926015148125	0.029214642854
0	2636	635.014945344857	0.198964670633
0	2640	636.274710024216	0.054418220708
0	2644	636.784400395606	0.183213357224
0	2648	637.073680351179	0.182699770779
0	2652	637.935159822865	0.048243759359
0	2656	639.550673538569	0.045378604697
0	2660	639.723070115179	0.062502789088
0	2664	640.026495928093	0.04838098722
0	2668	640.274846808352	0.114212843074
0	2672	641.04888742585	0.127673937664
0	2676	642.129794469066	0.001687086679
0	2680	643.550853002195	0.060966876523
0	2684	643.76300916446	0.17968524402
0	2688	645.236911937476	0.012350996311
0	2692	646.797937962367	0.056552742097
0	2696	646.99670093148	0.144439941693
0	2700	647.176980615014	0.125687694825
0	2704	647.830057837204	0.032320385068
0	2708	648.773691608932	0.097192899968
0	2712	648.790776751273	0.002664148232
0	2716	650.446964724829	0.001369246529
0	2720	651.453267702377	0.085256051494
0	2724	652.264288870755	0.005581706688
0	2728	653.738517614116	0.03876062517
0	2732	653.972215316414	0.084552296185
0	2738	654.383829154677	0.064491808957
0	2740	654.417389562042	0.060115837962
0	2744	654.671714615876	0.055822275479
0	2748	655.684607514545	0.230307405116
0	2752	656.967599525077	0.107791719027
0	2756	658.697808672996	0.045011971694
0	2760	660.767363920787	0.051137807142
0	2764	661.379608211929	0.064342012199
0	2768	662.968194770589	0.001098568345
0	2774	664.40482566766	0.120081361028
0	2776	664.407299099704	0.072117433084
0	2780	665.142340904438	0.14904772328
0	2784	666.274790137821	0.437509790887
0	2790	666.583653154915	0.160777022961
0	2792	666.626464886723	0.081988222502
0	2796	668.36223522171	0.07430192321
0	2800	669.235318174521	0.015211718121
0	2804	670.83262085338	0.009543603525
0	2808	671.306305263832	0.006384275037
0	2812	671.424664202664	0.022964106101
0	2816	672.382410231737	0.073310616697
0	2820	673.614775544324	0.037660681971
0	2824	674.571384857247	0.069083126557
0	2828	675.740514307415	0.057394449914
0	2832	676.722496977673	0.045909142261
0	2836	677.115428446112	0.257997572649
0	2840	679.880712489201	0.09161465208
0	2846	681.494497906949	0.098800843245
0	2848	681.530771721889	0.069841870295
0	2854	682.616600793952	0.254319386565
0	2856	682.782868224893	0.233155433461
0	2860	685.627904551279	0.14246549846
0	2864	686.333854253933	0.016617726466
0	2868	686.678778805983	0.035271582847
0	2872	689.074409898999	0.002647575453
0	2876	689.245152047616	0.104710343761
0	2880	689.429105955385	0.098048721872
0	2884	689.790174046033	0.016329922653
0	2888	690.777340366743	0.025631537586
0	2892	691.839292657645	0.124385713906
0	2896	694.325340524983	0.030773037827
0	2900	696.427883543635	0.006381682434
0	2904	696.961362199987	0.026101413184
0	2908	698.921403904267	0.254024105048
0	2912	699.466114076509	0.086968933825
0	2916	699.630863606938	0.069815729288
0	2920	699.701651111049	0.045961538484
0	2924	700.427487993712	0.033079362981
0	2928	702.165121177052	0.023079947368
0	2932	705.17799448599	0.03943860889
0	2936	707.459644490128	0.124126033398
0	2944	708.099631195779	0.479202246689
0	2946	708.148724180129	0.195717486666
0	2948	708.467904641954	0.405325473664
0	2952	711.126034804895	0.107016079211
0	2956	711.989007293127	0.091209417744
0	2960	712.745703881397	0.082827030251
0	2964	713.819337797463	0.12885643084
0	2968	714.073581499432	0.12282138789
0	2972	714.738748691211	0.042226581387
0	2976	715.660787965862	0.014705896843
0	2980	715.944804802932	0.013784923696
0	2984	717.513761429136	0.238166895871
0	2988	718.515588665602	0.089819435551
0	2992	719.966444465834	0.004911645985
0	2996	720.349042216706	0.070578581554
0	3000	720.745394655983	0.069160046846
0	3004	722.472894195652	0.01590461859
0	3008	725.090215370343	0.416372943009
0	3012	725.880490763966	0.099265059295
0	3016	726.216385389476	0.088576636801
0	3020	727.418610776233	0.066945097797
0	3024	730.209138219092	0.089731552502
0	3028	731.04481348828	0.095178764278
0	3032	731.3621758173	0.068980588522
0	3036	734.227678816408	0.013379311548
0	3042	734.841304097401	0.036770257249
0	3044	734.953846259529	0.125245393939