version 3
run MyArrivalRate-0-20231107-16:05:18-12483
attr configname MyArrivalRate
attr datetime 20231107-16:05:18
attr datetimef 20231107-160518
attr experiment MyArrivalRate
attr inifile omnetpp.ini
attr iterationvars ""
attr iterationvarsd ""
attr iterationvarsf ""
attr measurement ""
attr network fifonet
attr processid 12483
attr repetition 0
attr replication #0
attr resultdir results
attr runnumber 0
attr seedset 0
config description "my job arrival rate = 0.92 load"
config **.gen.sendIaTime exponential(4.35s)
config **.gen.serviceTime exponential(4s)
config output-vector-file fifo-r4.vec
config network fifonet
config sim-time-limit 2000s
config cpu-time-limit 300s
config cmdenv-express-mode true
config cmdenv-interactive true

vector 0 fifonet.FIFONet.fifo "" ETV
vector 1 fifonet.FIFONet.sink "queueing time vector" ETV
0	3	3.183498018263	0
0	7	8.932460722095	0
0	11	15.690908538313	0
0	15	23.636042783455	0
0	19	30.86492580599	0
0	24	35.021017326309	1
0	26	36.557259581557	2
0	28	36.811232892112	3
0	29	37.063347016775	2
0	32	38.196082104774	3
0	33	39.365423804307	2
0	36	41.021173719665	3
0	37	48.259521492452	2
0	40	48.295292441079	3
0	42	51.139681608491	4
0	44	53.30977484771	5
0	46	61.176181147306	6
0	47	61.519170612165	5
0	50	62.966545430961	6
0	51	63.453579031959	5
0	54	67.510609842101	6
0	56	69.508339239161	7
0	57	69.729163502451	6
0	59	72.739859955702	5
0	61	76.097591367303	4
0	64	83.211578428901	5
0	66	83.869432642344	6
0	67	86.490607710699	5
0	69	86.785349132559	4
0	71	87.149993237056	3
0	73	87.231695590652	2
0	76	92.74731378156	3
0	77	94.381646244407	2
0	80	95.53874868271	3
0	81	100.404783278957	2
0	84	102.559657708493	3
0	86	105.756752940669	4
0	87	108.566040310725	3
0	90	110.698087337109	4
0	92	116.245327841782	5
0	94	120.039925040215	6
0	96	123.393055804548	7
0	97	123.946927787292	6
0	100	129.575992162956	7
0	102	130.062957961708	8
0	103	130.367886015538	7
0	105	132.843603854045	6
0	108	132.854329915543	7
0	110	133.751314192376	8
0	111	138.909747750006	7
0	113	139.413245387758	6
0	116	139.55982649549	7
0	118	140.621437430194	8
0	120	141.253396848915	9
0	122	142.957599875359	10
0	123	143.498972885155	9
0	126	143.662893604449	10
0	127	144.117891607155	9
0	130	144.756666008974	10
0	132	146.881889173464	11
0	133	155.695573519103	10
0	136	157.012662351296	11
0	137	158.646882686127	10
0	140	159.612857785456	11
0	141	160.789145567038	10
0	143	162.018266975648	9
0	146	163.743159223667	10
0	147	167.971286278655	9
0	149	170.407615971387	8
0	151	173.768954793836	7
0	153	173.84482907064	6
0	156	173.862786342037	7
0	158	174.317627674159	8
0	159	177.690352826903	7
0	161	181.478339535603	6
0	163	185.316531445076	5
0	166	189.543557201537	6
0	168	194.149485673508	7
0	170	194.964789060686	8
0	171	196.828191530187	7
0	174	196.893596585186	8
0	175	201.408747348987	7
0	178	202.935932285777	8
0	179	203.190821329192	7
0	181	205.488950956157	6
0	184	207.007800070783	7
0	186	208.717839695056	8
0	188	208.888286425453	9
0	189	210.273382153985	8
0	191	210.521843315851	7
0	194	213.263825297928	8
0	195	214.917493186055	7
0	197	219.359882968804	6
0	199	220.304709793135	5
0	201	220.856824546849	4
0	203	222.37267240398	3
0	205	224.181080644878	2
0	208	227.153143190861	3
0	209	227.558791818989	2
0	211	229.868089062215	1
0	214	231.754688088943	2
0	216	236.139571806521	3
0	217	247.686076446919	2
0	219	248.116616879543	1
0	221	249.053822954645	0
0	223	249.757477136347	0
0	228	263.248842293351	1
0	229	263.690979190456	0
0	231	264.859301323525	0
0	235	268.088139962628	0
0	239	269.49792902955	0
0	243	273.318689542427	0
0	247	274.888381707175	0
0	252	280.966110098353	1
0	253	283.578630968273	0
0	255	284.173480045281	0
0	259	288.395496184117	0
0	263	302.354305658605	0
0	268	305.298962550639	1
0	270	309.540655964219	2
0	271	312.120848265331	1
0	273	312.529427791431	0
0	276	314.411848455249	1
0	277	319.808703468569	0
0	279	320.212842569805	0
0	284	339.115105533393	1
0	286	342.214844164393	2
0	288	342.464216294336	3
0	289	344.953083713285	2
0	292	345.073985251225	3
0	294	345.161812308661	4
0	295	347.482430098868	3
0	298	347.697333300232	4
0	299	362.530139236884	3
0	302	364.625663334609	4
0	303	366.24405322449	3
0	306	366.56323799396	4
0	308	369.415299330942	5
0	309	371.621034313099	4
0	311	371.780939509332	3
0	313	373.110580473187	2
0	315	373.622807534432	1
0	318	374.491199171429	2
0	319	375.027511891957	1
0	321	375.533066437658	0
0	323	377.063870233105	0
0	327	385.871168481414	0
0	331	394.888836840736	0
0	336	399.309636728851	1
0	337	400.403525542224	0
0	339	403.747915670105	0
0	343	409.257392362148	0
0	347	414.08069733044	0
0	351	422.324546015174	0
0	356	433.357720989298	1
0	358	434.772951796849	2
0	360	434.813845062238	3
0	361	436.411851955418	2
0	364	442.849720344096	3
0	365	447.008875670123	2
0	368	447.381466189777	3
0	369	448.543116526517	2
0	371	452.94650016688	1
0	373	453.511823021123	0
0	376	455.391044940746	1
0	378	456.728747039112	2
0	379	458.551558261559	1
0	382	458.935067575278	2
0	383	459.918174929663	1
0	385	460.727576683932	0
0	388	462.435936264414	1
0	390	463.220033560548	2
0	391	464.260092851769	1
0	393	464.341342686952	0
0	396	465.228562958342	1
0	398	465.917348510445	2
0	400	469.584759700291	3
0	401	471.404306976604	2
0	403	471.423133138573	1
0	406	474.87657234274	2
0	407	475.953669706463	1
0	410	476.357080654063	2
0	411	477.212556349882	1
0	414	478.827463721702	2
0	415	482.527587844883	1
0	418	484.965419902133	2
0	420	487.15931546079	3
0	421	495.628160555742	2
0	423	496.772244445774	1
0	426	497.006556515785	2
0	427	500.20581631709	1
0	430	501.437721991367	2
0	431	503.792179800234	1
0	433	507.189063046492	0
0	435	508.198743018056	0
0	440	516.058571641097	1
0	442	518.65282200643	2
0	443	523.310403627266	1
0	445	525.680899737075	0
0	447	533.174739256504	0
0	452	535.907241559565	1
0	453	540.178854912526	0
0	455	541.590935445623	0
0	460	544.553045149601	1
0	461	548.968091107503	0
0	464	549.448021922871	1
0	466	550.698257493776	2
0	467	550.988166098522	1
0	470	552.332721458246	2
0	471	559.506163682794	1
0	473	562.9883069881	0
0	476	566.967732929018	1
0	478	570.829930064418	2
0	479	571.527628788033	1
0	482	575.518511810411	2
0	483	576.245160522612	1
0	486	578.832636615548	2
0	488	579.972585616836	3
0	489	581.412797597815	2
0	492	582.157637589271	3
0	493	584.195995441417	2
0	496	586.353010599169	3
0	498	589.154866080372	4
0	500	591.917671643366	5
0	501	596.69786887205	4
0	504	597.394510943464	5
0	506	598.872052530197	6
0	507	600.829056914632	5
0	510	600.975867766861	6
0	511	603.034640875169	5
0	513	606.764252396795	4
0	515	606.841771522187	3
0	518	606.991827315296	4
0	519	608.277480385666	3
0	521	612.594761180289	2
0	523	613.965159679081	1
0	526	616.15922439683	2
0	528	616.631404275283	3
0	530	617.053018257692	4
0	531	617.814659902165	3
0	534	618.954090117609	4
0	535	620.054504182461	3
0	537	620.636800096252	2
0	539	622.053696625234	1
0	542	622.445191255659	2
0	544	622.593976125517	3
0	545	625.429250515597	2
0	547	629.004166828819	1
0	549	632.420485771391	0
0	551	636.656523312916	0
0	556	639.383521361245	1
0	558	640.471375864398	2
0	560	641.133853134255	3
0	562	641.578947808864	4
0	563	641.922903895035	3
0	565	644.181345899518	2
0	567	653.255881870288	1
0	569	655.088573406121	0
0	571	657.378419611834	0
0	576	660.890231989606	1
0	578	664.240066328632	2
0	580	666.824286046341	3
0	582	667.280522031203	4
0	583	668.478078895985	3
0	586	669.169925634559	4
0	588	671.925488021653	5
0	589	675.041669207692	4
0	591	679.909747189042	3
0	594	679.92832563674	4
0	595	680.332197763557	3
0	598	690.151596847156	4
0	600	690.318127518205	5
0	601	690.40932628389	4
0	604	693.406270501629	5
0	606	694.200313419818	6
0	607	695.419756383537	5
0	610	700.768045451719	6
0	612	709.476686707257	7
0	614	711.782199227152	8
0	616	712.438140121495	9
0	618	712.585112638646	10
0	619	722.481318463285	9
0	621	723.128798810134	8
0	624	730.201946387446	9
0	625	731.232434078547	8
0	627	731.941736379128	7
0	630	732.234582051329	8
0	632	734.604710558758	9
0	634	734.830530160754	10
0	635	735.765602074818	9
0	637	736.294336913277	8
0	640	736.809396685598	9
0	642	736.882336467664	10
0	644	738.023468962537	11
0	645	743.830052459621	10
0	648	744.321373219187	11
0	649	750.416928864928	10
0	651	753.784452711856	9
0	653	755.87593283221	8
0	655	756.162634369462	7
0	658	756.869434340833	8
0	659	760.944388634591	7
0	662	762.899801722125	8
0	663	763.361584921981	7
0	666	764.703366282692	8
0	668	767.628569530918	9
0	669	768.482921737231	8
0	672	769.429377844544	9
0	674	770.289936201991	10
0	676	771.105643639723	11
0	678	773.813942086029	12
0	679	776.534012682054	11
0	682	782.844677198955	12
0	683	791.373855049669	11
0	686	795.392444853525	12
0	687	799.120163999634	11
0	689	799.167296927308	10
0	692	799.468998275622	11
0	693	800.952308209384	10
0	696	803.418641794484	11
0	697	806.189501665475	10
0	699	806.942681566351	9
0	701	809.887205966297	8
0	704	810.077757628747	9
0	705	810.110686177851	8
0	707	811.003243010254	7
0	709	811.078024891938	6
0	712	813.093176626235	7
0	714	813.317997266445	8
0	715	817.391675780362	7
0	717	818.405698600936	6
0	720	818.542220709903	7
0	721	820.100327006363	6
0	723	830.629202456558	5
0	725	835.504389669932	4
0	727	835.633816888513	3
0	729	836.35364625472	2
0	732	839.766448772675	3
0	733	840.2395748871	2
0	736	841.119158724294	3
0	737	843.683269433823	2
0	739	844.769941715192	1
0	742	846.063353478663	2
0	744	854.751051537244	3
0	745	855.655334738844	2
0	747	859.462653569013	1
0	750	860.796146764668	2
0	751	862.530972187302	1
0	753	866.096486494942	0
0	755	871.335627980389	0
0	759	876.811707100544	0
0	764	879.869449346107	1
0	765	880.862334839966	0
0	768	880.963903313148	1
0	769	881.80443313364	0
0	772	882.037741132423	1
0	773	882.628561327572	0
0	776	885.704698805476	1
0	778	888.322002396857	2
0	779	894.184863695167	1
0	781	899.566253428103	0
0	783	902.263231706648	0
0	787	904.642035712952	0
0	792	908.961755696109	1
0	794	909.214370471313	2
0	795	909.747965142323	1
0	797	909.987088993985	0
0	800	912.125015169364	1
0	801	912.266679255211	0
0	803	913.761358432789	0
0	807	926.152162495196	0
0	811	939.580516812048	0
0	815	942.656984728387	0
0	819	945.366661586111	0
0	823	953.933545452582	0
0	828	962.412331452859	1
0	829	964.12963179118	0
0	831	966.547956664521	0
0	835	970.405857281956	0
0	840	976.848324749299	1
0	842	979.605920333663	2
0	843	980.471900587539	1
0	846	982.25434350842	2
0	848	992.559137551561	3
0	850	993.201180294638	4
0	852	994.333708934868	5
0	853	999.030510693034	4
0	855	1000.008474781206	3
0	858	1003.614709235384	4
0	859	1004.360092515663	3
0	861	1005.58251212292	2
0	863	1005.665980997361	1
0	865	1011.347514819702	0
0	867	1012.890265595883	0
0	871	1015.762383147561	0
0	876	1020.050170098596	1
0	877	1021.892485139915	0
0	880	1023.240319476877	1
0	882	1023.240560257621	2
0	884	1024.866430585723	3
0	886	1027.277073692082	4
0	887	1029.005058487251	3
0	889	1032.97107565884	2
0	892	1036.698145703887	3
0	893	1041.214360622363	2
0	896	1041.653046484314	3
0	897	1042.492659241854	2
0	900	1044.302390549598	3
0	902	1047.175578946507	4
0	903	1048.891537009214	3
0	905	1049.712928084157	2
0	908	1053.938362725975	3
0	910	1055.072147288763	4
0	911	1061.92566676253	3
0	914	1064.30609523341	4
0	916	1065.943562912528	5
0	917	1066.578119896232	4
0	919	1067.548993870919	3
0	921	1079.326914980612	2
0	924	1079.676928517686	3
0	926	1082.453048952015	4
0	927	1084.576946952475	3
0	929	1085.748752786421	2
0	931	1086.708446864166	1
0	934	1087.861624836091	2
0	936	1088.587529525453	3
0	937	1089.629357525122	2
0	939	1089.733348505894	1
0	941	1090.663448579433	0
0	943	1092.87480206204	0
0	947	1096.164965230859	0
0	952	1099.863154300834	1
0	954	1100.760811573016	2
0	955	1101.30212108514	1
0	957	1102.602985157045	0
0	959	1106.138127781177	0
0	964	1113.909800725304	1
0	965	1115.906099731374	0
0	967	1116.406230091068	0
0	972	1120.207120042004	1
0	974	1121.043457309667	2
0	975	1121.710949269275	1
0	977	1122.277517408456	0
0	980	1126.346104461206	1
0	981	1127.324768102405	0
0	984	1129.051965059209	1
0	985	1129.341887835411	0
0	987	1132.675400797995	0
0	991	1137.845195916788	0
0	995	1138.658476758184	0
0	1000	1139.396798591048	1
0	1001	1141.494929243256	0
0	1003	1143.252750805227	0
0	1008	1145.101173899144	1
0	1010	1151.079566011873	2
0	1012	1151.50224541277	3
0	1014	1152.568857115764	4
0	1015	1156.249188324516	3
0	1018	1158.586283743522	4
0	1019	1162.047407430226	3
0	1022	1164.309257967113	4
0	1024	1164.512349651967	5
0	1026	1165.533102596233	6
0	1028	1167.004075605806	7
0	1029	1167.571259812893	6
0	1032	1171.923570990277	7
0	1034	1172.206811952099	8
0	1036	1175.735275398791	9
0	1038	1175.775656554835	10
0	1039	1176.933227655523	9
0	1041	1177.281661988557	8
0	1043	1180.495229039225	7
0	1046	1183.562111334328	8
0	1047	1184.008089354098	7
0	1049	1197.08207495739	6
0	1051	1198.464153292225	5
0	1053	1199.566265040378	4
0	1055	1199.989013736797	3
0	1057	1200.055278114483	2
0	1060	1201.640585600028	3
0	1062	1206.928839159138	4
0	1064	1207.800762707761	5
0	1065	1210.665512176565	4
0	1068	1210.925134896231	5
0	1070	1214.703395828107	6
0	1071	1215.099151193421	5
0	1073	1221.250466051327	4
0	1076	1221.441596632431	5
0	1077	1222.574105576032	4
0	1080	1225.498458202851	5
0	1081	1226.10562775586	4
0	1083	1226.369995798634	3
0	1086	1226.570367029477	4
0	1087	1229.02922679684	3
0	1090	1229.212031934972	4
0	1092	1238.394398103537	5
0	1094	1241.342836812476	6
0	1095	1244.205321929191	5
0	1098	1246.811817743208	6
0	1100	1249.708232560079	7
0	1101	1252.571548219684	6
0	1103	1254.222467686591	5
0	1106	1255.071262574263	6
0	1108	1258.070302813902	7
0	1110	1266.167530460874	8
0	1112	1267.107549003059	9
0	1113	1267.25815159533	8
0	1115	1268.312460046671	7
0	1118	1273.564003802587	8
0	1119	1280.241262748561	7
0	1122	1289.483513191414	8
0	1123	1291.587823522063	7
0	1125	1298.009658574334	6
0	1128	1298.108470926439	7
0	1129	1301.991513147801	6
0	1132	1304.703370771178	7
0	1133	1310.286559000201	6
0	1135	1311.673572215356	5
0	1137	1319.233979007741	4
0	1140	1322.981459275356	5
0	1141	1323.082026714101	4
0	1143	1323.135327693415	3
0	1145	1324.841470941561	2
0	1147	1325.482807319507	1
0	1150	1329.074398557134	2
0	1152	1329.092043554881	3
0	1154	1330.457934411456	4
0	1156	1332.756766854569	5
0	1158	1335.18845021903	6
0	1160	1336.726595321424	7
0	1162	1338.956904016863	8
0	1164	1339.516228049015	9
0	1165	1341.514605939004	8
0	1167	1344.117795308441	7
0	1169	1346.869569222285	6
0	1171	1350.950317574104	5
0	1173	1352.789482845207	4
0	1175	1353.378382994459	3
0	1178	1356.688432762897	4
0	1180	1358.955125634616	5
0	1181	1360.284916513428	4
0	1183	1361.127049666244	3
0	1186	1362.618418551958	4
0	1187	1363.991230938219	3
0	1190	1364.449739398471	4
0	1191	1365.00727645162	3
0	1193	1365.419149906497	2
0	1196	1371.215269866013	3
0	1197	1373.346711270933	2
0	1200	1373.520602735846	3
0	1202	1375.457002362264	4
0	1204	1377.675462489509	5
0	1206	1379.238390976808	6
0	1208	1385.731340891045	7
0	1209	1387.782475290868	6
0	1212	1397.069928231141	7
0	1214	1398.781663719525	8
0	1215	1400.742327158471	7
0	1217	1410.223877480927	6
0	1220	1412.070303758206	7
0	1222	1412.13140643011	8
0	1224	1415.447949456445	9
0	1225	1416.173596498286	8
0	1228	1417.028053108668	9
0	1229	1417.794328027656	8
0	1231	1418.132645994704	7
0	1233	1420.224516609327	6
0	1235	1421.28159846587	5
0	1237	1421.850100511441	4
0	1239	1422.069730001645	3
0	1242	1426.356129879301	4
0	1243	1427.242321436828	3
0	1245	1427.288294437662	2
0	1248	1427.611160169315	3
0	1250	1432.532657808394	4
0	1251	1433.177111069637	3
0	1253	1433.812843788262	2
0	1255	1434.144292879936	1
0	1257	1434.519791069066	0
0	1259	1438.979340756694	0
0	1263	1440.892655044211	0
0	1267	1444.410831069508	0
0	1271	1451.555954081019	0
0	1276	1458.066408822698	1
0	1278	1458.508082087843	2
0	1280	1459.795255236472	3
0	1282	1463.694287278311	4
0	1283	1463.873957250767	3
0	1286	1466.509497240898	4
0	1287	1469.067739793186	3
0	1290	1469.420964734037	4
0	1291	1470.328379908049	3
0	1293	1470.892251445709	2
0	1295	1471.120117575577	1
0	1298	1472.089424773763	2
0	1299	1472.555962849084	1
0	1301	1473.771849085999	0
0	1304	1475.32401165799	1
0	1305	1476.208106907293	0
0	1308	1477.861905061994	1
0	1309	1480.807072458292	0
0	1311	1485.565057463632	0
0	1315	1487.525082236242	0
0	1319	1490.574682437064	0
0	1323	1497.091091344554	0
0	1328	1499.781871290094	1
0	1330	1504.475203342067	2
0	1332	1505.481884570072	3
0	1333	1505.603886286468	2
0	1335	1505.837997882254	1
0	1337	1510.614051364635	0
0	1340	1513.656049758886	1
0	1341	1516.646912291143	0
0	1344	1518.631103958438	1
0	1346	1519.485713162089	2
0	1348	1519.800736291087	3
0	1350	1519.843085321718	4
0	1351	1522.656563465986	3
0	1353	1523.857863787129	2
0	1355	1525.730289600068	1
0	1357	1529.273332184188	0
0	1360	1529.52655067579	1
0	1362	1530.149701318801	2
0	1363	1530.547667575704	1
0	1365	1532.401227685864	0
0	1367	1533.279100329439	0
0	1371	1539.183886419263	0
0	1375	1548.179912930316	0
0	1380	1556.396534124605	1
0	1382	1559.154138874843	2
0	1383	1559.894168785557	1
0	1385	1560.214484209333	0
0	1387	1563.140665565864	0
0	1391	1569.942427739043	0
0	1396	1573.721140162074	1
0	1398	1574.553277961732	2
0	1399	1574.838801201999	1
0	1402	1577.358629898304	2
0	1404	1584.017820520707	3
0	1406	1587.553928391864	4
0	1407	1587.658036520446	3
0	1410	1588.311677339492	4
0	1412	1588.987169636438	5
0	1413	1591.807016896857	4
0	1415	1591.951028215855	3
0	1418	1593.547227242997	4
0	1419	1594.202329023124	3
0	1422	1596.917791593839	4
0	1423	1597.055866154327	3
0	1426	1598.631942031808	4
0	1428	1599.323644304886	5
0	1430	1600.081408722022	6
0	1431	1600.128879521797	5
0	1434	1600.684261395212	6
0	1436	1604.446742171229	7
0	1437	1604.704061038272	6
0	1440	1604.867811175769	7
0	1441	1606.004744520226	6
0	1443	1606.556557447943	5
0	1445	1608.551326779423	4
0	1448	1615.368782648479	5
0	1450	1615.745566574323	6
0	1451	1621.082644737609	5
0	1453	1621.911385466614	4
0	1456	1622.754860770497	5
0	1457	1631.284345186985	4
0	1460	1631.87522856032	5
0	1462	1632.302048483756	6
0	1463	1634.423693265351	5
0	1466	1634.719164755994	6
0	1467	1636.865624645342	5
0	1470	1637.507399677892	6
0	1472	1641.28306909967	7
0	1473	1645.415311407011	6
0	1476	1646.762508191883	7
0	1478	1646.881881328755	8
0	1479	1647.869728245975	7
0	1482	1652.600052455421	8
0	1483	1653.021576146279	7
0	1485	1655.058386093744	6
0	1488	1658.936089375775	7
0	1490	1658.978782174107	8
0	1492	1660.582117961414	9
0	1494	1661.735272952534	10
0	1495	1664.433864656938	9
0	1498	1664.780384469636	10
0	1499	1669.118919436726	9
0	1501	1673.929774572043	8
0	1503	1675.518098372125	7
0	1506	1678.148261688752	8
0	1507	1681.173231690283	7
0	1510	1681.697942441999	8
0	1512	1682.144043176564	9
0	1513	1685.21630834268	8
0	1515	1686.314162430694	7
0	1518	1686.372290552684	8
0	1519	1687.014142623567	7
0	1521	1693.38036711474	6
0	1524	1695.019827181255	7
0	1526	1695.766020210327	8
0	1527	1706.17338702182	7
0	1529	1708.624368801275	6
0	1531	1712.200374411995	5
0	1534	1717.009240818329	6
0	1536	1717.395661682876	7
0	1538	1717.827275323081	8
0	1539	1720.000282059382	7
0	1542	1722.194897929451	8
0	1543	1722.444512304524	7
0	1545	1734.580282594114	6
0	1548	1735.16563943882	7
0	1549	1738.010023004569	6
0	1551	1744.886300251723	5
0	1554	1747.174268821042	6
0	1556	1749.754173769406	7
0	1557	1754.467019409281	6
0	1560	1755.412816578857	7
0	1561	1761.227959228315	6
0	1564	1761.310192114105	7
0	1565	1761.922585481149	6
0	1568	1762.905359533109	7
0	1570	1763.460304579127	8
0	1571	1765.887703504186	7
0	1574	1766.012748888185	8
0	1575	1767.920581320397	7
0	1578	1768.175609283775	8
0	1579	1768.179644091556	7
0	1581	1770.386458541918	6
0	1584	1771.477106051757	7
0	1585	1771.583772071592	6
0	1587	1779.146688689318	5
0	1589	1779.282176110288	4
0	1592	1779.596992097043	5
0	1594	1782.939804308694	6
0	1596	1787.900017423292	7
0	1598	1791.986851061797	8
0	1599	1792.057223601017	7
0	1602	1792.43781920119	8
0	1604	1792.85777376496	9
0	1606	1793.108302953114	10
0	1608	1793.502010448259	11
0	1609	1793.813531543368	10
0	1612	1794.679661547966	11
0	1613	1795.578150786287	10
0	1615	1795.644003922226	9
0	1617	1796.463412990812	8
0	1619	1798.515120958128	7
0	1622	1802.638169925951	8
0	1624	1805.852472012686	9
0	1626	1808.982927317631	10
0	1627	1809.111874007049	9
0	1629	1809.531604996363	8
0	1632	1813.547565739413	9
0	1634	1816.969097789142	10
0	1636	1817.112665124137	11
0	1638	1820.887864258148	12
0	1639	1821.155283410985	11
0	1642	1827.301600935957	12
0	1643	1829.300460160073	11
0	1646	1829.354662117765	12
0	1647	1831.722195286634	11
0	1650	1832.292460153015	12
0	1651	1833.304457688215	11
0	1653	1834.364197438765	10
0	1655	1838.176687591829	9
0	1657	1838.311223275509	8
0	1659	1838.374139770609	7
0	1661	1840.614173263932	6
0	1663	1840.896181057374	5
0	1665	1842.057274717867	4
0	1667	1843.057077984466	3
0	1669	1844.224862271381	2
0	1671	1844.786765139201	1
0	1673	1844.835202119447	0
0	1675	1845.326062148715	0
0	1680	1850.902366555618	1
0	1682	1852.942174329255	2
0	1684	1853.145471151804	3
0	1685	1853.536232061904	2
0	1688	1854.760024637289	3
0	1690	1862.507090473067	4
0	1691	1868.174480535751	3
0	1694	1869.663638380841	4
0	1696	1874.108113192073	5
0	1698	1876.104884676643	6
0	1700	1877.73640412921	7
0	1702	1884.777579768135	8
0	1704	1885.095354476758	9
0	1705	1886.73560051955	8
0	1707	1888.839723702591	7
0	1709	1889.551230734016	6
0	1712	1890.100736756001	7
0	1714	1892.185311977004	8
0	1715	1893.624101049244	7
0	1717	1896.319874826119	6
0	1720	1896.556771871414	7
0	1722	1907.93480992745	8
0	1723	1914.511170233559	7
0	1725	1914.781306861067	6
0	1728	1916.303072709857	7
0	1730	1919.298108122849	8
0	1731	1920.897062343914	7
0	1734	1921.726829656151	8
0	1735	1922.258011222368	7
0	1737	1923.363231994078	6
0	1739	1927.708045238707	5
0	1741	1928.83783208654	4
0	1744	1929.248500080071	5
0	1745	1933.222602330577	4
0	1748	1935.078700514682	5
0	1749	1936.136112622708	4
0	1752	1937.656760282706	5
0	1753	1938.343321109261	4
0	1755	1941.579239889792	3
0	1757	1942.932624364587	2
0	1759	1947.837153213521	1
0	1761	1949.980748394879	0
0	1763	1951.769308005269	0
0	1768	1954.71695515647	1
0	1770	1956.921201136933	2
0	1771	1959.810415951789	1
0	1774	1962.758987011077	2
0	1776	1965.352334738653	3
0	1777	1970.169720533778	2
0	1779	1970.358117618	1
0	1781	1971.417246711354	0
0	1783	1973.131277128073	0
0	1788	1978.691688085397	1
0	1790	1980.783508361115	2
0	1791	1984.146986394028	1
0	1794	1985.979539615375	2
0	1796	1995.870165790466	3
0	1798	1996.431483279318	4
0	1800	1997.634139596282	5
0	1802	1998.76127790937	6
1	4	3.183498018263	3.183498018263
1	8	8.932460722095	5.02372303219
1	12	15.690908538313	3.692892525883
1	16	23.636042783455	3.148804559928
1	20	30.86492580599	2.204193946681
1	30	37.063347016775	4.152637202655
1	34	39.365423804307	4.344406477998
1	38	48.259521492452	11.702261910895
1	48	61.519170612165	24.707937720053
1	52	63.453579031959	25.257496927185
1	58	69.729163502451	28.707989782786
1	60	72.739859955702	24.444567514623
1	62	76.097591367303	24.957909758812
1	68	86.490607710699	33.180832862989
1	70	86.785349132559	25.609167985253
1	72	87.149993237056	24.183447806095
1	74	87.231695590652	19.721085748551
1	78	94.381646244407	24.873307005246
1	82	100.404783278957	17.193204850056
1	88	108.566040310725	24.696607668381
1	98	123.946927787292	31.199614005732
1	104	130.367886015538	34.829137332828
1	106	132.843603854045	30.283946145552
1	112	138.909747750006	33.152994809337
1	114	139.413245387758	28.715158050649
1	124	143.498972885155	27.253645043373
1	128	144.117891607155	24.07796656694
1	134	155.695573519103	32.302517714555
1	138	158.646882686127	29.070890523171
1	142	160.789145567038	30.72618760533
1	144	162.018266975648	29.163937060105
1	148	167.971286278655	34.219972086279
1	150	170.407615971387	30.847789475897
1	152	173.768954793836	33.147517363642
1	154	173.84482907064	32.591432221725
1	160	177.690352826903	34.732752951544
1	162	181.478339535603	37.815445931154
1	164	185.316531445076	40.559865436102
1	172	196.828191530187	49.946302356723
1	176	201.408747348987	44.396084997691
1	180	203.190821329192	43.577963543736
1	182	205.488950956157	41.74579173249
1	190	210.273382153985	36.410595811948
1	192	210.521843315851	36.204215641692
1	196	214.917493186055	25.373935984518
1	198	219.359882968804	25.210397295296
1	200	220.304709793135	25.339920732449
1	202	220.856824546849	23.963227961663
1	204	222.37267240398	19.436740118203
1	206	224.181080644878	17.173280574095
1	210	227.558791818989	18.840952123933
1	212	229.868089062215	20.979802636762
1	218	247.686076446919	34.422251148991
1	220	248.116616879543	20.963473688682
1	222	249.053822954645	17.299134865702
1	224	249.757477136347	13.617905329826
1	230	263.690979190456	4.234970860377
1	232	264.859301323525	1.610459030174
1	236	268.088139962628	2.511766323965
1	240	269.49792902955	1.121108033916
1	244	273.318689542427	0.692509824585
1	248	274.888381707175	0.46782163917
1	254	283.578630968273	4.272288788598
1	256	284.173480045281	3.207369946928
1	260	288.395496184117	0.875522386029
1	264	302.354305658605	1.840055830961
1	272	312.120848265331	6.881326630866
1	274	312.529427791431	7.230465240792
1	278	319.808703468569	10.26804750435
1	280	320.212842569805	5.800994114556
1	290	344.953083713285	14.996125838338
1	296	347.482430098868	8.367324565475
1	300	362.530139236884	20.315295072491
1	304	366.24405322449	23.779836930154
1	310	371.621034313099	26.547049061874
1	312	371.780939509332	26.619127200671
1	314	373.110580473187	25.413247172955
1	316	373.622807534432	8.997144199823
1	320	375.027511891957	8.464273897997
1	322	375.533066437658	6.117767106716
1	324	377.063870233105	2.572671061676
1	328	385.871168481414	2.139537503028
1	332	394.888836840736	0.265189605929
1	338	400.403525542224	4.716758108261
1	340	403.747915670105	4.438278941254
1	344	409.257392362148	1.233659360391
1	348	414.08069733044	2.963035801788
1	352	422.324546015174	0.394601233673
1	362	436.411851955418	3.431582564297
1	366	447.008875670123	13.651154680825
1	370	448.543116526517	13.770164729668
1	372	452.94650016688	18.132655104642
1	374	453.511823021123	10.662102677027
1	380	458.551558261559	11.170092071782
1	384	459.918174929663	4.527129988917
1	386	460.727576683932	3.99882964482
1	392	464.260092851769	5.325025276491
1	394	464.341342686952	1.905406422538
1	402	471.404306976604	8.184273416056
1	404	471.423133138573	6.194570180231
1	408	475.953669706463	10.036321196018
1	412	477.212556349882	7.627796649591
1	416	482.527587844883	7.651015502143
1	422	495.628160555742	19.271079901679
1	424	496.772244445774	17.944780724072
1	428	500.20581631709	15.240396414957
1	432	503.792179800234	16.632864339444
1	434	507.189063046492	10.182506530707
1	436	508.198743018056	6.761021026689
1	444	523.310403627266	12.209126627537
1	446	525.680899737075	9.622328095978
1	448	533.174739256504	14.521917250074
1	454	540.178854912526	4.808954268986
1	456	541.590935445623	5.683693886058
1	462	548.968091107503	6.723688818184
1	468	550.988166098522	6.435120948921
1	472	559.506163682794	10.058141759923
1	474	562.9883069881	12.290049494324
1	480	571.527628788033	19.194907329787
1	484	576.245160522612	9.277427593594
1	490	581.412797597815	10.582867533397
1	494	584.195995441417	8.677483631006
1	502	596.69786887205	17.865232256502
1	508	600.829056914632	20.856471297796
1	512	603.034640875169	20.877003285898
1	514	606.764252396795	20.411241797626
1	516	606.841771522187	17.686905441815
1	520	608.277480385666	16.3598087423
1	522	612.594761180289	15.200250236825
1	524	613.965159679081	15.093107148884
1	532	617.814659902165	16.838792135304
1	536	620.054504182461	13.062676867165
1	538	620.636800096252	4.477575699422
1	540	622.053696625234	5.422292349951
1	546	625.429250515597	8.376232257905
1	548	629.004166828819	10.05007671121
1	550	632.420485771391	9.975294515732
1	552	636.656523312916	14.062547187399
1	564	641.922903895035	4.223398434639
1	566	644.181345899518	4.797824538273
1	568	653.255881870288	12.78450600589
1	570	655.088573406121	13.954720271866
1	572	657.378419611834	15.79947180297
1	584	668.478078895985	8.899658628901
1	590	675.041669207692	14.151437218086
1	592	679.909747189042	15.66968086041
1	596	680.332197763557	13.507911717216
1	602	690.40932628389	23.128804252687
1	608	695.419756383537	26.249830748978
1	620	722.481318463285	50.555830441632
1	622	723.128798810134	43.200473173394
1	626	731.232434078547	41.080837231391
1	628	731.941736379128	41.623608860923
1	636	735.765602074818	42.359331573189
1	638	736.294336913277	42.094023493459
1	646	743.830052459621	43.062007007902
1	650	750.416928864928	40.940242157671
1	652	753.784452711856	42.002253484704
1	654	755.87593283221	43.437792710715
1	656	756.162634369462	43.577521730816
1	660	760.944388634591	30.742442247145
1	664	763.361584921981	31.127002870652
1	670	768.482921737231	33.878211178473
1	680	776.534012682054	41.7034825213
1	684	791.373855049669	54.564458364071
1	688	799.120163999634	62.23782753197
1	690	799.167296927308	61.143827964771
1	694	800.952308209384	56.630934990197
1	698	806.189501665475	49.320067324642
1	700	806.942681566351	44.042879844226
1	702	809.887205966297	45.183839683605
1	706	810.110686177851	42.482116646933
1	708	811.003243010254	41.57386516571
1	710	811.078024891938	40.788088689947
1	716	817.391675780362	46.286032140639
1	718	818.405698600936	44.591756514907
1	722	820.100327006363	37.255649807408
1	724	830.629202456558	35.236757603033
1	726	835.504389669932	36.03539139431
1	728	835.633816888513	32.215175094029
1	730	836.35364625472	26.275888625973
1	734	840.2395748871	27.146398260865
1	738	843.683269433823	30.365272167378
1	740	844.769941715192	26.227721005289
1	746	855.655334738844	15.888885966169
1	748	859.462653569013	18.343494844719
1	752	862.530972187302	16.467618708639
1	754	866.096486494942	11.345434957698
1	756	871.335627980389	10.539481215721
1	760	876.811707100544	1.495545983612
1	766	880.862334839966	2.031460490747
1	770	881.80443313364	1.934983787533
1	774	882.628561327572	1.664658014424
1	780	894.184863695167	12.147122562744
1	782	899.566253428103	13.861554622627
1	784	902.263231706648	13.941229309791
1	788	904.642035712952	1.03205105576