file 6673463 1699340869                                         
version 3
run LowArrivalRate-2-20231107-16:07:49-12650
attr configname LowArrivalRate
attr datetime 20231107-16:07:49
attr datetimef 20231107-160749
attr experiment LowArrivalRate
attr inifile omnetpp.ini
attr iterationvars $0=9123
attr iterationvarsd 9123
attr iterationvarsf 9123-
attr measurement $0=9123
attr network fifonet
attr processid 12650
attr repetition 0
attr replication #0
attr resultdir results
attr runnumber 2
attr seedset 9123
config description "low job arrival rate = 0.1 load"
config seed-set 9123
config **.gen.sendIaTime exponential(1s)
config **.gen.serviceTime exponential(0.1s)
config output-vector-file fifo-r1.vec
config network fifonet
config sim-time-limit 100000s
config cpu-time-limit 300s
config cmdenv-express-mode true
config cmdenv-interactive true

vector 0 fifonet.FIFONet.fifo "" ETV
vector 1 fifonet.FIFONet.sink "queueing time vector" ETV
0	881 1021562 2 32958 0 16401.332127884203 32768 0 16103 262350237 2813062447405
0	1022443 1077644 32958 65800 16401.332127884203 32663.671493605953 32768 16104 32375 794178553 19971110078179
0	2100087 1077633 65802 98628 32663.675512727266 49002.938504238786 32768 32375 48669 1327793579 54528632610981
0	3177720 1109215 98630 131446 49003.991527235265 65451.487059611483 32768 48669 64978 1861959171 1.0652736117057e+14
0	4286935 1110529 131448 164256 65451.943017041492 81696.84539757047 32768 64978 81299 2396568825 1.7600633978676e+14
0	5397464 1110519 164258 197062 81696.993636684803 97859.898583445414 32768 81299 97626 2931475852 2.6298226904557e+14
0	6507983 146178 197064 201378 97860.292703505461 99999.959268521723 4311 97626 99774 425494370 41997821017118
1	6654161 19301 4 200836 0 99728.465350010358 457 0 99276.597524647 15006763.083552 890145935045.04

