version 3
run MediumArrivalRate-0-20231030-11:58:26-8367
attr configname MediumArrivalRate
attr datetime 20231030-11:58:26
attr datetimef 20231030-115826
attr experiment MediumArrivalRate
attr inifile omnetpp.ini
attr iterationvars ""
attr iterationvarsd ""
attr iterationvarsf ""
attr measurement ""
attr network fifonet
attr processid 8367
attr repetition 0
attr replication #0
attr resultdir results
attr runnumber 0
attr seedset 0
config description "medium job arrival rate = 0.5 load"
config **.gen.sendIaTime exponential(0.2s)
config **.gen.serviceTime exponential(0.1s)
config output-vector-file fifo-r2.vec
config network fifonet
config sim-time-limit 2000s
config cpu-time-limit 300s
config cmdenv-express-mode true
config cmdenv-interactive true

vector 0 fifonet.FIFONet.sink "queueing time vector" ETV
0	4	0.079587450457	0.079587450457
0	8	0.305305153502	0.125593075805
0	12	0.643955233259	0.092322313147
0	16	1.020662101287	0.078720113998
0	20	1.372839646797	0.055104848667
0	26	1.616952013475	0.103815930066
0	28	1.674503933163	0.06434221701
0	38	1.903145986185	0.222352442204
0	42	2.234637214178	0.542166736378
0	44	2.282997424673	0.526855718705
0	48	2.439887036435	0.553856060817
0	52	2.515154447766	0.294681232083
0	54	2.599097733056	0.247848003929
0	58	2.858923141641	0.407899010711
0	60	2.866291677188	0.053593693403
0	64	2.904129685646	0.009116102612
0	68	3.105978643536	0.00204255884
0	72	3.374534478491	0.178748766344
0	78	3.976398123746	0.150578425864
0	80	4.18042954954	0.324363680925
0	86	4.648766498711	0.384522186914
0	90	4.809290454417	0.416704308084
0	94	4.87118340038	0.155796839068
0	96	5.022836997779	0.160457552229
0	100	5.102154674836	0.012587440944
0	104	5.446755961772	0.102143187435
0	108	5.534549981395	0.01547296805
0	114	5.962685992837	0.289442047799
0	118	6.036468722013	0.078951840956
0	120	6.090025294036	0.110119180852
0	124	6.138973088805	0.030728035215
0	128	6.298311192571	0.148825482575
0	134	6.477451989239	0.060908242318
0	138	6.5614854598	0.096132014732
0	140	6.56338231672	0.068973266194
0	148	6.668901306568	0.096138093907
0	152	6.763600974285	0.158410463735
0	154	6.859555772022	0.204076875057
0	156	7.14734727415	0.394156967323
0	160	7.33348687714	0.11451389547
0	164	7.383074046539	0.044551849505
0	168	7.585874354407	0.057453240674
0	174	8.113302106018	0.119610779946
0	176	8.119513635065	0.104910063838
0	180	8.824537554873	0.109891246755
0	186	9.037472878985	0.111059744569
0	190	9.061093549593	0.097195201973
0	192	9.074896418436	0.022317265092
0	196	9.36828388773	0.037896196428
0	200	9.562810209278	0.045210206022
0	206	9.68066529407	0.084442779353
0	208	9.738397725151	0.134338579151
0	212	10.250683031651	0.445449684618
0	216	10.45458618626	0.010763510816
0	220	10.678818109992	0.023430151878
0	224	10.874583161741	0.017591354543
0	228	12.034886148756	0.105874271509
0	232	12.132603101299	0.029208053327
0	236	12.273202141488	0.062794158099
0	240	12.367191884558	0.028027700848
0	244	12.551849744139	0.017312745615
0	248	12.628732785487	0.011695540979
0	254	12.94847812453	0.106807219715
0	256	12.963349351455	0.045367277965
0	260	13.241197199796	0.021888059651
0	264	13.862748514289	0.046001395774
0	270	14.206034160463	0.172033165772
0	272	14.216248648615	0.179514738238
0	276	14.413736189136	0.181981891928
0	280	14.46582064789	0.010103477531
0	284	15.545337990786	0.374903145958
0	288	15.654732764626	0.06323365964
0	300	16.110208552103	0.37619272845
0	302	16.203056401793	0.457575192855
0	304	16.337480929008	0.472010342742
0	306	16.341478558914	0.471969947019
0	308	16.37471958301	0.388635293342
0	312	16.777203990768	0.012805676531
0	316	16.888599815559	0.035117608938
0	320	16.997250327137	0.012638863643
0	324	17.25625626369	0.038270094886
0	328	17.69632204578	0.053488437576
0	332	18.150245704969	0.006629740148
0	336	18.310414007144	0.117918952707
0	340	18.442673510847	0.083609753197
0	344	18.790553346161	0.03084148401
0	348	18.976037344639	0.074075895045
0	352	19.408942951831	0.009865030842
0	362	19.992928386688	0.085789564107
0	364	20.257853979556	0.333361060507
0	366	20.296210000966	0.306648998811
0	370	20.406294591975	0.414853439687
0	372	20.420427663331	0.059520980843
0	376	20.695256194335	0.125993381011
0	380	20.971684724324	0.034165416703
0	384	21.01925789623	0.020235043857
0	388	21.18877578122	0.088312904196
0	392	21.263453602864	0.00203124588
0	400	21.474046914622	0.176574107241
0	402	21.474517568671	0.084698582081
0	404	21.587780982868	0.166293695032
0	408	21.621576060351	0.031472166085
0	414	21.966281412328	0.132875787375
0	418	22.293795730099	0.392320757499
0	422	22.32239782735	0.307342024054
0	426	22.408237124133	0.110976438978
0	428	22.497896211212	0.099766764739
0	432	22.935798242801	0.084922081156
0	436	23.079849906938	0.025241999289
0	442	23.804137453032	0.305228165688
0	446	23.863399855777	0.136568975726
0	448	24.050745843763	0.204639084846
0	454	24.734931932291	0.120223856725
0	456	24.770233945618	0.13082054058
0	462	25.098869337206	0.168092220455
0	464	25.149371211981	0.112449595907
0	472	25.47492795905	0.212949939607
0	474	25.561981541683	0.242521427026
0	476	25.775464586681	0.380856703543
0	480	26.185420267112	0.117938293364
0	484	26.374245182715	0.12919092688
0	488	26.530201178752	0.06957994609
0	496	26.925541622687	0.312546835766
0	500	27.028821323752	0.363415088496
0	502	27.083960922765	0.318092527857
0	506	27.177201210806	0.218442102799
0	508	27.179139188941	0.091559139269
0	512	27.250498314385	0.035892721587
0	518	27.574346316117	0.107932019866
0	520	27.608606278587	0.07425903582
0	524	27.727311885662	0.096237505577
0	528	27.963666328399	0.055996107007
0	532	28.343717140227	0.014557397845
0	538	28.386291575306	0.035422413225
0	542	28.470680422565	0.100426709569
0	544	28.560053330396	0.102394014645
0	550	28.703577686467	0.085407973564
0	552	28.809478625005	0.18446822843
0	558	29.425102453297	0.105584960866
0	564	29.481563503409	0.084619992548
0	568	29.708426902678	0.261467092821
0	570	29.754244191074	0.276825656166
0	572	29.811490346217	0.313607688338
0	580	30.547936075704	0.222491465723
0	586	30.712025833497	0.326268040871
0	590	30.833727783031	0.293954618496
0	592	30.844289047394	0.185701183194
0	596	31.096217260402	0.416653029082
0	598	31.221478012893	0.455044650384
0	608	31.898017064887	1.004891178833
0	610	31.914204073558	0.653131630489
0	614	32.116794955268	0.385687054249
0	616	32.134527512783	0.395763029187
0	620	32.230124155175	0.349376086134
0	622	32.243342526136	0.326086736718
0	624	32.431735414795	0.212514934255
0	634	32.784289689778	0.164671910133
0	636	32.868477785951	0.142859430679
0	638	32.92076478896	0.164988231649
0	640	32.927932327391	0.16539841297
0	646	33.69204713881	0.119543856628
0	648	33.752477045995	0.086519250531
0	658	33.902962641474	0.128033420381
0	662	34.104239915095	0.318928183565
0	666	34.475235974285	0.598941873797
0	668	34.668893698034	0.789246044348
0	670	34.670072021226	0.737958505707
0	672	34.714697303278	0.493024971361
0	676	34.929524518739	0.130929836402
0	680	35.094682450263	0.018829497522
0	684	35.232388571272	0.073613109999
0	688	35.298854569929	0.005587005289
0	692	35.398377269985	0.02231392081
0	696	35.417498797709	0.001869547042
0	702	35.610974313119	0.157841272211
0	704	35.636324883633	0.058672373929
0	708	36.035224431929	0.042365710136
0	714	36.832989465729	0.263221886255
0	718	36.954869146063	0.197673823044
0	720	36.958104826528	0.019316698044
0	724	37.262950107892	0.017995734155
0	730	37.480742543454	0.097148215809
0	732	37.566834907122	0.172903998318
0	736	37.661291897146	0.027166807034
0	742	38.882086493302	0.272134825591
0	746	38.977269464056	0.305124235351
0	748	39.053977429513	0.154512901757
0	752	39.388036778945	0.089137857691
0	756	39.707812871145	0.130978537136
0	760	40.28180985037	0.03738864959
0	766	40.456803723729	0.050786512269
0	768	40.480356181071	0.026588395041
0	772	40.524690713501	0.020603204848
0	778	40.842366921603	0.28890755919
0	782	40.976901664926	0.25484654743
0	784	41.04432612189	0.201935207089
0	788	41.571087927302	0.025801276394
0	794	41.802864996672	0.029350765192
0	798	41.808843092964	0.017498003485
0	800	41.865832849495	0.062873287593
0	804	41.974149286079	0.037366979439
0	808	42.481702135911	0.119185810365
0	812	43.159296877344	0.047441629033
0	816	43.323939936158	0.019796773533
0	820	43.463037142131	0.002498835331
0	824	43.853172101283	0.006961767107
0	828	44.232350529591	0.113753850554
0	832	44.309300947255	0.060458121834
0	836	44.551825914713	0.07691198011
0	840	44.888710002702	0.226984001578
0	848	45.376531907779	0.463965252637
0	850	45.400981009983	0.361628350962
0	852	45.509771453344	0.348652211576
0	858	45.665463366116	0.030560490181
0	860	45.667550087977	0.003128005464
0	864	45.858530710381	0.142038345559
0	868	46.181773791722	0.038568769405
0	872	46.661137613352	0.048363838749
0	878	46.909093982549	0.088750192848
0	884	47.086908316232	0.188049920893
0	888	47.186058745522	0.140526815549
0	892	47.39214086961	0.346597869258
0	894	47.424098335097	0.303802675982
0	896	47.584070279281	0.352940454356
0	900	47.684817337974	0.020534776874
0	908	48.197412558194	0.305318466959
0	910	48.313723886537	0.29982087276
0	912	48.337995735904	0.191992106177
0	918	48.751384245031	0.294448027742
0	920	48.882635044328	0.373570801164
0	924	48.962908719801	0.029295145849
0	928	49.0328917962	0.023992351944
0	932	49.713341319063	0.073022766524
0	936	49.770556048177	0.002599774519
0	940	50.039878931086	0.023252501838
0	944	50.10528519456	0.055283837065
0	948	50.359063478725	0.046867647598
0	954	50.582319889419	0.062282930976
0	958	50.614841491217	0.04642060382
0	960	50.70322005682	0.093527570702
0	964	51.138711640878	0.199403920128
0	968	51.226746970502	0.012503258992
0	974	51.511788195693	0.072852384273
0	976	51.525952399173	0.022176765056
0	980	51.668409189634	0.126181267349
0	984	51.836455784646	0.050427993325
0	988	51.993772999202	0.083337824065
0	992	52.297733732095	0.02024587637
0	996	52.338984297804	0.015647577038
0	1002	52.426345639768	0.066954059086
0	1004	52.470291178817	0.08423147348
0	1012	52.924208170975	0.282063594842
0	1018	53.069163648618	0.420833814173
0	1020	53.207259958185	0.284061520856
0	1024	53.441309154251	0.498677181249
0	1026	53.450020012577	0.458348421047
0	1028	53.530359188844	0.262024304084
0	1036	53.619281644291	0.087821507872
0	1044	53.946131284373	0.405333599225
0	1046	53.980683242744	0.392954387745
0	1048	54.008236036448	0.35287623848
0	1050	54.018804753858	0.137261260052
0	1052	54.0204613633	0.125895296537
0	1058	54.322050122761	0.265255851552
0	1062	54.432891098182	0.374240222097
0	1064	54.58667396963	0.170025172649
0	1068	55.280934004212	0.033090988118
0	1074	55.579269165262	0.088288054496
0	1076	55.585878366331	0.054808816548
0	1080	55.74119962076	0.066480774955
0	1086	56.227834370407	0.379402378309
0	1092	56.436990027669	0.27875569974
0	1094	56.478263014342	0.133506315359
0	1098	56.80415511206	0.410115248634
0	1100	56.830512823344	0.315017102194
0	1106	57.235893543574	0.298220067547
0	1112	57.519557562912	0.446323686474
0	1114	57.680103439219	0.355422163667
0	1118	57.779649803556	0.321800030677
0	1122	57.987025949866	0.282600084381
0	1124	58.021701280245	0.17938850719
0	1130	58.403609271461	0.18901016981
0	1132	58.49981046412	0.24199211915
0	1136	58.555999365983	0.001332524483
0	1140	59.329251888857	0.042653581204
0	1144	59.699181498023	0.016033409449
0	1148	60.387156840026	0.400794965487
0	1152	60.891813494025	0.065079734236
0	1160	61.175663247027	0.068794347846
0	1164	61.277681955822	0.170001792377
0	1166	61.3236610876	0.153181344542
0	1168	61.338383591331	0.062210402613
0	1174	61.56063806069	0.172663337974
0	1178	61.58169138951	0.122997351741
0	1182	61.653295921309	0.092058955014
0	1184	61.678697059144	0.091744045394
0	1188	62.386776503634	0.010296836372
0	1194	62.67888446559	0.198189034111
0	1198	63.039778566088	0.390655874042
0	1208	63.363774862778	0.630453511122
0	1212	63.600813620839	0.556433397112
0	1216	63.749556596273	0.599184056692
0	1218	63.790074884507	0.550672477045
0	1220	63.798532833683	0.457132259451
0	1222	63.850829599049	0.437570243792
0	1224	63.877256645463	0.165470857368
0	1228	64.247312699698	0.014212551139
0	1232	64.317291368039	0.005490737255
0	1238	65.052087372465	0.12931478588
0	1240	65.053236697486	0.127654792653
0	1246	65.225287057475	0.147220415799
0	1248	65.241180375441	0.090465289985
0	1252	65.587878405651	0.008286227292
0	1256	65.646682175157	0.009387454728
0	1260	65.975059216141	0.111488742191
0	1264	66.224316032332	0.028152402247
0	1268	66.363908309889	0.054565771477
0	1272	66.669818189755	0.08150183309
0	1282	67.139246077866	0.197005756559
0	1284	67.269090641426	0.231554603599
0	1288	67.300606644298	0.242763789683
0	1290	67.31470343274	0.197680203475
0	1292	67.320400085987	0.024111015718
0	1296	67.461620142916	0.035896131838
0	1300	67.589981741398	0.030397155923
0	1304	67.743178848925	0.060906445532
0	1308	67.945963180523	0.114974138775
0	1312	68.066623421088	0.118949625133
0	1316	68.363982581322	0.033340333838
0	1320	68.492068142983	0.047791798751
0	1324	68.815004827029	0.019985553792
0	1330	69.092795436565	0.155374550203
0	1332	69.09864822646	0.143159891282
0	1338	69.290675053938	0.11940133706
0	1340	69.441496577101	0.223938665832
0	1344	69.743622877482	0.150241279371
0	1348	69.852152230257	0.030032508029
0	1356	69.90822274473	0.046810645323
0	1358	69.996798809333	0.120902887903
0	1360	70.028657194121	0.150814190823
0	1366	70.36939880394	0.046339002754
0	1368	70.391345620029	0.039635214567
0	1372	70.715394654085	0.061591928378
0	1376	71.176856252414	0.00456380495
0	1382	71.584312929241	0.160841784909
0	1384	71.592320814835	0.033859475772
0	1388	71.758402298274	0.073154533913
0	1392	72.15051283363	0.036645129183
0	1396	72.334080828942	0.08616674918
0	1404	72.675475832942	0.320480882961
0	1406	72.779200342352	0.385946183191
0	1408	72.782800625327	0.260564767933
0	1412	72.884688061365	0.056282520182
0	1420	73.0623236417	0.07133842828
0	1422	73.139148975887	0.113324730392
0	1424	73.253528513799	0.196647151203
0	1428	73.299056270636	0.032517087049
0	1432	73.435302982681	0.013795323193
0	1438	73.550188407164	0.049869233287
0	1448	73.863471356119	0.331349778882
0	1450	73.884189874344	0.31722855379
0	1452	74.118513867353	0.523835182514
0	1454	74.196997569312	0.429331262587
0	1456	74.258045853812	0.471020052625
0	1462	74.483571256331	0.213742169042
0	1464	74.544931677305	0.257779191127
0	1468	74.73821508351	0.128796197508
0	1474	75.079666389394	0.050920248687
0	1480	75.314053353474	0.265683308241
0	1482	75.431179722969	0.271677895104
0	1486	75.551451101352	0.263754564434
0	1488	75.591159196354	0.129868663032
0	1494	75.854597100401	0.141378332954
0	1496	75.955674016711	0.236966829178
0	1500	76.00905795935	0.0274463522
0	1506	76.290423154287	0.017499504822
0	1512	76.449578766566	0.174692229821
0	1516	76.769404264243	0.420801139576
0	1518	76.830678808729	0.429057063781
0	1520	76.920078948997	0.378452076826
0	1528	77.351239607913	0.194997691185
0	1530	77.412345364042	0.092899734521
0	1534	77.715739621282	0.37578361316
0	1536	77.801483131543	0.267124945209
0	1542	78.103853008482	0.171906931179
0	1544	78.343370987421	0.377117184643
0	1552	79.111977096323	0.169023495476
0	1554	79.129342752644	0.168622675266
0	1558	79.22847070322	0.247906320545
0	1560	79.279292648625	0.097918031174
0	1564	79.784207118195	0.006476569279
0	1568	80.385021801312	0.055170361259
0	1572	80.47840059776	0.029932838242
0	1576	80.897708160453	0.189072915443
0	1580	80.983166133304	0.003387185524
0	1590	81.372496165807	0.319376187268
0	1592	81.416403864366	0.337769171068
0	1596	81.460519345439	0.264530890805
0	1598	81.462165673837	0.166735361934
0	1600	81.482650900552	0.035427633799
0	1604	81.871844059972	0.051292699183
0	1610	82.23916270249	0.264918826223
0	1612	82.249655977223	0.047356325572
0	1626	82.68079200919	0.290591960366
0	1630	82.884421427917	0.473487211765
0	1632	82.944964806081	0.514722334123
0	1634	82.984521366121	0.5427603108
0	1636	83.011014859885	0.551152310534
0	1640	83.106327113712	0.592319686214
0	1642	83.109690505804	0.229774647134
0	1644	83.111263418181	0.083563555523
0	1648	83.227629679529	0.056000837333
0	1652	83.388547470217	0.007050194836
0	1658	83.567836435271	0.029027341512
0	1660	83.592831516936	0.047421626166
0	1664	83.748176871921	0.029194607173
0	1668	84.027914281401	0.014047571696
0	1672	84.109471251765	0.001210924506
0	1676	84.255603002025	0.012271500732
0	1682	85.139203466266	0.096359269629
0	1690	85.505159678112	0.40620029624
0	1696	85.969187677707	0.77644403038
0	1698	86.021790757283	0.819700129609
0	1700	86.039578433069	0.763255461235
0	1702	86.14140019095	0.508890284138
0	1706	86.208794535372	0.247247943145
0	1714	86.663576920558	0.497686658849
0	1716	86.670330336246	0.41263448904
0	1720	86.823224223317	0.490515987487
0	1722	86.857247945278	0.200807496164
0	1724	86.884878464571	0.213827684026
0	1730	87.009803630247	0.108620331116
0	1732	87.038048301443	0.041022463415
0	1736	87.307631755941	0.109619256101
0	1740	87.793978443627	0.072837757303
0	1744	88.161068612622	0.055180212164
0	1748	88.32448914758	0.080897969513
0	1752	88.38909114779	0.03383461187
0	1756	88.82369368468	0.122613221223
0	1760	89.022725535387	0.053589879534
0	1764	89.1323811297	0.04471399026
0	1770	89.958204894766	0.176408739219
0	1774	90.217187509316	0.345143594071
0	1776	90.221897436422	0.248508878397
0	1780	90.268270733596	0.026478227334
0	1784	90.403877644959	0.042850760418
0	1792	91.083577609985	0.168721828876
0	1796	91.506879189618	0.532548702927
0	1804	91.854164760208	0.783658628656
0	1810	92.089498237015	0.780094116761
0	1812	92.124674975558	0.360529421966
0	1818	92.607647000355	0.817693746126
0	1820	92.636337909893	0.791090112355
0	1822	92.647532364007	0.750462115293
0	1826	92.949029191226	0.917482362104
0	1828	92.975610846128	0.499821180366
0	1830	93.092654419129	0.528197874167
0	1832	93.098667256042	0.436906883128
0	1838	93.290082897891	0.131196308108
0	1844	93.503553137345	0.320500268309
0	1848	93.535358591864	0.152845937995
0	1850	93.583010173961	0.171996930962
0	1854	93.629897989524	0.125125608197
0	1856	93.768043897509	0.184839258257
0	1860	93.838319299753	0.027155579168
0	1864	94.147491638948	0.018856472425
0	1868	94.328499260076	0.059654991688
0	1872	94.375416408714	0.036307884018
0	1878	94.956106327749	0.182752626782
0	1880	94.983253324392	0.12316665235
0	1884	95.198060771843	0.069793754883
0	1892	95.576108181178	0.285742534782
0	1896	95.676619746035	0.341245600867
0	1906	95.878578196357	0.384159610927
0	1910	96.160269369353	0.519205716187
0	1914	96.299205220048	0.572359199728
0	1916	96.419460954519	0.687629315053
0	1922	96.763555359278	0.999495204047
0	1932	97.282068301581	1.489729523803
0	1934	97.342183766219	1.303701218235
0	1936	97.349534403961	1.064115880766
0	1938	97.38417773671	0.909538865264
0	1940	97.400707037942	0.703176520153
0	1942	97.454747307702	0.638550676261
0	1944	97.468821823245	0.414428901125
0	1946	97.561485683275	0.412024827227
0	1948	97.609743204791	0.439203122761
0	1956	98.041350977849	0.225747679076
0	1958	98.384913317097	0.554271656491
0	1960	98.464074226557	0.629534707361
0	1964	98.644855567565	0.032134030287
0	1970	98.734572846802	0.089705301411
0	1976	98.961643857542	0.256905711563
0	1978	99.013854987983	0.260567754532
0	1980	99.094168665175	0.167423027958
0	1984	99.702325037386	0.031697737989
0	1988	99.795173985492	0.060778476412
0	1994	100.487576780607	0.051368561326
0	1996	100.516133672657	0.074759844491
0	2000	100.949798103216	0.070494932138
0	2004	101.163082492004	0.037161575483
0	2008	101.237690694309	0.046686434356
0	2014	101.715940660107	0.07443782614
0	2018	101.854808387494	0.207929429625
0	2020	101.895381021881	0.051996395468
0	2024	102.181254993987	0.257911313079
0	2030	102.804609919421	0.198281258027
0	2032	102.809601479664	0.166349643689
0	2036	103.136012108607	0.029255060119
0	2040	103.24591687682	0.05908352204
0	2044	103.637950806529	0.01105158766
0	2048	103.81341648879	0.042844102879
0	2054	104.048244105756	0.134744882369
0	2056	104.162348439181	0.15102753367
0	2060	104.259751128211	0.097387859148
0	2064	104.865356600529	0.123969808062
0	2068	105.211046479851	0.022931717164
0	2072	105.456015368244	0.041809165894
0	2076	105.730772881922	0.112776043357
0	2084	105.988362087243	0.211390681465
0	2086	106.066817756935	0.226167747946
0	2088	106.100043819293	0.227296988832
0	2092	106.263826649738	0.003070177301
0	2098	106.586262831272	0.123903650738
0	2100	106.587054365923	0.053462029076
0	2106	106.703540657196	0.046629702644
0	2108	106.779157281975	0.117279685874
0	2116	107.080443783226	0.255247649355
0	2120	107.089819321987	0.175005594441
0	2122	107.141897208474	0.087367279712
0	2124	107.144358572881	0.056469492495
0	2128	107.240690707416	0.041947932347
0	2134	107.769348082203	0.097347254365
0	2136	107.802069120336	0.128358688769
0	2140	108.391129785972	0.02354058665
0	2144	108.61469948337	0.012296256689
0	2150	108.709417152118	0.086071470751
0	2152	108.828250068147	0.136469448457
0	2156	108.958145077577	0.1114611003
0	2166	109.401582859047	0.297320833948
0	2168	109.401853546505	0.199103246131
0	2170	109.506037992987	0.251770719345
0	2172	109.597765172678	0.222155417187
0	2176	110.180162971891	0.088852871233
0	2180	110.779309606483	0.329064883026
0	2184	110.944475139711	0.001701562373
0	2190	111.282098860856	0.119231577422
0	2192	111.450127100864	0.171058086338
0	2196	111.581459608188	0.071295647913
0	2202	111.759970305507	0.040641286675
0	2204	111.916435960577	0.191200579512
0	2208	112.239443297935	0.010230178101
0	2212	112.443936021686	0.058346017231
0	2216	113.404256040529	0.073386996702
0	2220	113.545882422315	0.118402773635
0	2224	113.765678744008	0.009528448287
0	2228	113.905606696021	0.025845924872
0	2232	114.283264793876	0.052814399072
0	2236	114.483002344372	0.097629202297
0	2240	115.039917964648	0.218002044716
0	2246	115.342596787477	0.096449976176
0	2248	115.356921657856	0.031185167625
0	2256	115.823527928315	0.394145868463
0	2260	116.028933176701	0.442214493757
0	2266	116.098793533396	0.317665056756
0	2270	116.354345305062	0.477817278233
0	2280	116.432298807945	0.399537023118
0	2286	116.689092070815	0.63055455678
0	2290	116.866227402747	0.579366784008
0	2294	117.211328415683	0.856779570381
0	2298	117.463630161818	1.100295869691
0	2300	117.467300068846	1.079283882418
0	2302	117.486509626461	1.075987450757
0	2304	117.535797503298	1.049173137882
0	2314	117.839750662311	1.296511809726
0	2316	117.875422287578	1.166718250272
0	2320	117.892913313588	0.710562065681
0	2324	118.110336604301	0.754434327806
0	2328	118.169466882858	0.631335444749
0	2330	118.407928417181	0.815423811357
0	2332	118.425391196829	0.658963518838
0	2334	118.533601385277	0.73563929672
0	2336	118.591630344075	0.711884749669
0	2338	118.599587359584	0.523394128296
0	2342	118.718812583792	0.552953491182
0	2344	118.747234558145	0.097565186703
0	2348	119.075267600888	0.004042157765
0	2352	119.191294280762	0.006181614865
0	2356	119.337216354599	0.006302344426
0	2366	119.697965798662	0.238306827319
0	2368	119.832628527516	0.332212479731
0	2374	120.060967930958	0.446450685558
0	2380	120.172619788314	0.516561885672
0	2382	120.247896753518	0.340639731121
0	2384	120.284201468957	0.228894008277
0	2392	120.903792480829	0.77118618374
0	2394	120.948763817624	0.815536649173
0	2396	121.012374163061	0.697232853635
0	2398	121.05989510694	0.535315346416
0	2404	121.448759579217	0.923139192132
0	2406	121.467955369412	0.239539217737
0	2408	121.507703277404	0.061238008437
0	2414	121.629903493094	0.114052447496
0	2416	121.636432852659	0.075861995394
0	2422	122.173963547969	0.093458041635
0	2424	122.238904620648	0.084403278364
0	2428	122.291149541577	0.033407508306
0	2432	122.485489637572	0.027235122635
0	2436	122.973160184998	0.072260223754
0	2440	123.060115483479	0.045875130265
0	2444	123.602042849689	0.060976217286
0	2448	123.761573857507	0.041170057787
0	2456	124.185769990105	0.352315134123
0	2458	124.200092317253	0.186956987984
0	2460	124.210273881451	0.109590660959
0	2464	124.356766485658	0.04206676724
0	2468	124.615398506067	0.089410588813
0	2474	124.97850534029	0.107639045942
0	2478	125.029131736998	0.055175932649
0	2480	125.752478582278	0.770865018375
0	2484	125.860072231789	0.04336994704
0	2488	126.063395701006	0.127800212917
0	2492	126.592042308242	0.101495895837
0	2498	126.881213256518	0.167693473299
0	2502	127.255128104322	0.47956909645
0	2504	127.475668184702	0.534057047477
0	2514	127.715241404982	0.144630757216
0	2516	127.835056543766	0.240354242446
0	2518	127.875928309189	0.217672139593
0	2520	127.891908287232	0.216527958814
0	2526	127.971713062828	0.006468360515
0	2530	127.999407285361	0.02977710691
0	2532	128.056020240531	0.056863685434
0	2536	128.13336123005	0.073813674255
0	2542	128.617581527918	0.148317340804
0	2550	128.936369945145	0.427559404443
0	2552	128.948849254371	0.326461175045
0	2554	128.96016658761	0.259135050886
0	2556	129.049251967799	0.173092671457
0	2560	129.564207313976	0.136805402138
0	2566	130.181193167371	0.18848646142
0	2570	130.455818354393	0.452324257158
0	2574	130.86581178366	0.680945064964
0	2576	130.91686129993	0.287238018084
0	2582	130.981154768632	0.047857657107
0	2584	130.997149189967	0.016318904221
0	2590	131.385956963893	0.115497453357
0	2592	131.49289006973	0.180517662049
0	2600	131.968519381273	0.198095529612
0	2602	131.97875122923	0.206533100102
0	2606	132.047622313626	0.256490837198
0	2612	132.134630304663	0.150411668296
0	2614	132.162279073073	0.081664594794
0	2616	132.180794678422	0.079870446027
0	2620	133.136290285375	0.196312328956
0	2624	133.399803576122	0.006031802378
0	2628	133.520624242024	0.063605047112
0	2632	133.597513325043	0.012311045492
0	2636	133.776968348983	0.061075417487
0	2640	134.248921077592	0.391014076965
0	2648	134.596848095995	0.055113794831
0	2652	134.791426554387	0.228629369383
0	2654	134.803905306623	0.233016530487
0	2658	134.835548045742	0.13244330944
0	2662	134.887264738449	0.061566548411
0	2668	134.938315996043	0.058973187351
0	2670	135.049602377204	0.158124708477
0	2672	135.091871356011	0.173951367318
0	2678	135.431654966024	0.125094866066
0	2684	135.533594484831	0.124980105321
0	2686	135.584537335853	0.079864593581
0	2690	135.641058499338	0.131942026662
0	2692	135.73638709246	0.133349013358
0	2696	135.827009322572	0.007261605811
0	2700	136.188930635178	0.172825937297
0	2704	136.612730360503	0.105964494321
0	2710	136.859176595125	0.12958778165
0	2714	136.936162788706	0.128237067255
0	2716	136.947869792639	0.06392026492
0	2720	137.294205767384	0.051925372488
0	2724	137.59330881301	0.051982194488
0	2728	137.646067704057	0.038719746724
0	2732	137.860690548099	0.003040799376
0	2738	138.156220935091	0.133656841732
0	2740	138.167850101768	0.043234178337
0	2746	138.369205460933	0.093218674057
0	2748	138.49068103179	0.196877053416
0	2754	138.613661221263	0.100727268839
0	2756	138.933427097004	0.414476585473
0	2760	138.970017072766	0.010903186362
0	2764	139.39019586941	0.201866375993
0	2770	139.635151073002	0.00296247523
0	2772	139.711704981229	0.079274723081
0	2776	140.237842614193	0.051792344507
0	2780	140.895808768949	0.07427237497
0	2784	141.185205604354	0.045428757706
0	2788	142.128436453958	0.021142117498
0	2792	142.196995982387	0.001930810519
0	2796	142.645300395262	0.073012202026
0	2800	143.051819687732	0.185008921987
0	2804	143.168496378901	0.046715322646
0	2808	143.347699901478	0.025213967643
0	2812	143.404335571338	0.008396004003
0	2816	143.558982887722	0.008917108227
0	2824	143.639290639114	0.02502532804
0	2826	143.649828253177	0.033817362842
0	2830	143.680622132735	0.05955901804
0	2832	143.687466020273	0.035239068356
0	2836	143.803223020606	0.006785587805
0	2844	144.040798565699	0.193986175959
0	2846	144.058486636311	0.11942909105
0	2848	144.140512535572	0.190118214079
0	2852	144.583143058187	0.148481407405
0	2856	144.928098557411	0.060955918084
0	2860	145.338935655334	0.016649019392
0	2864	145.425301102569	0.022263885204
0	2868	145.709377675589	0.056736811967
0	2874	145.839122263277	0.075127237367
0	2878	145.882114483551	0.046300321076
0	2882	146.034202074314	0.183785403071
0	2888	146.173241007037	0.213241848254
0	2894	146.435261164725	0.376952934191
0	2896	146.438199159453	0.344926528912
0	2900	146.664239204191	0.484746208207
0	2902	146.714090837382	0.514496736651
0	2908	146.92477004997	0.315428350524
0	2910	147.042141822757	0.21252090765
0	2914	147.4791417979	0.60670444386
0	2918	147.621554899464	0.248685948916
0	2920	147.666896241297	0.120679076616
0	2924	147.737468613591	0.069527578099
0	2928	147.920804974013	0.047222874864
0	2932	147.977593943382	0.045399144675
0	2938	148.122609349084	0.030232813805
0	2942	148.191121356878	0.070454400601
0	2944	148.305610001825	0.140185291121
0	2950	148.342238140707	0.032481680465
0	2952	148.416551706138	0.086279393917
0	2956	148.724669401706	0.012486085784
0	2960	148.830285461124	0.017416922111
0	2964	148.870736250526	0.004793719958
0	2970	149.395170358279	0.353124140049
0	2972	149.395557140598	0.078767069431
0	2976	149.524265860735	0.019672068863
0	2982	149.772522238335	0.094898634678
0	2984	149.781009379439	0.066095848944
0	2988	150.160436116328	0.213619392632
0	2992	150.826713882634	0.127161000232
0	2998	151.226447576988	0.339293071464
0	3002	151.297301184532	0.33053447801
0	3004	151.333026364059	0.041661654123
0	3008	151.733126759811	0.079739847583
0	3014	152.027813826173	0.267102497351
0	3016	152.101369501667	0.233221425428
0	3020	152.450949547132	0.03108920631
0	3030	152.885901448293	0.209881842857
0	3032	152.932410022668	0.249699465407
0	3034	152.932548453929	0.138831551605
0	3036	152.961008472328	0.147571669964
0	3040	153.620126869765	0.038306806708
0	3044	153.948795133762	0.195741839224
0	3048	154.020779241733	0.061341806612
0	3052	154.108898710452	0.058804381168
0	3056	154.311409428755	0.040962716008
0	3060	154.652693131709	0.212593056994
0	3064	155.028240796169	0.290090904118
0	3070	155.68034106735	0.481469799973
0	3072	155.727620421821	0.42514334302
0	3082	156.092468597417	0.33857409029
0	3086	156.249432432878	0.48207853231
0	3088	156.362037712648	0.36334395414
0	3090	156.390126828198	0.338881987702
0	3092	156.414519795184	0.208460546152