version 3
run HighArrivalRate-0-20231017-18:40:35-13186
attr configname HighArrivalRate
attr datetime 20231017-18:40:35
attr datetimef 20231017-184035
attr experiment HighArrivalRate
attr inifile omnetpp.ini
attr iterationvars ""
attr iterationvarsd ""
attr iterationvarsf ""
attr measurement ""
attr network fifonet
attr processid 13186
attr repetition 0
attr replication #0
attr resultdir results
attr runnumber 0
attr seedset 0
config description "high job arrival rate = 0.83 load"
config **.gen.sendIaTime exponential(0.12s)
config **.gen.serviceTime exponential(0.1s)
config output-vector-file fifo-r3.vec
config network fifonet
config sim-time-limit 2000s
config cpu-time-limit 300s
config cmdenv-express-mode true
config cmdenv-interactive true

vector 0 fifonet.FIFONet.sink "queueing time vector" ETV
0	4	0.079587450457	0.079587450457
0	8	0.233420322423	0.125593075805
0	12	0.423302065214	0.092322313147
0	16	0.643885306371	0.078720113998
0	20	0.845745727544	0.055104848667
0	28	1.01169758011	0.103815930066
0	34	1.069249499798	0.103152470107
0	38	1.291601942002	0.283125815614
0	46	1.623093169995	0.607610883316
0	48	1.67145338049	0.61776835691
0	54	1.828342992252	0.696724406882
0	58	1.903610403583	0.571326474174
0	62	1.987553688873	0.576803851397
0	64	2.247379097458	0.7767646189
0	66	2.254747633005	0.567128842734
0	68	2.263863735617	0.526855585797
0	70	2.265906294457	0.40354464364
0	76	2.444655060801	0.527183633513
0	80	2.595233486665	0.299741667936
0	84	2.799264912459	0.48562539129
0	92	3.183787099373	0.625240512295
0	98	3.344311055079	0.70875936728
0	102	3.406204001042	0.576972064256
0	104	3.557857598441	0.640429931112
0	106	3.570445039385	0.516704699051
0	114	3.67258822682	0.465820562219
0	116	3.68806119487	0.376614986864
0	130	3.977503242669	0.573556875647
0	134	4.051285971845	0.476775843212
0	138	4.104842543868	0.516898875959
0	140	4.135570579083	0.47062354693
0	142	4.284396061658	0.594704635661
0	146	4.345304303976	0.495378055824
0	150	4.429337774537	0.550125707497
0	152	4.431234631457	0.534589201142
0	156	4.527372725364	0.583714797768
0	158	4.622072393081	0.658958086751
0	160	4.718027190818	0.724739852639
0	166	5.005818692946	0.95390450885
0	168	5.120332588416	0.788948799414
0	170	5.164884437921	0.761771119701
0	172	5.222337678595	0.705285010355
0	176	5.341948458541	0.545733662898
0	178	5.348159987588	0.539397844852
0	186	5.458051234343	0.229263449472
0	188	5.569110978912	0.213263098262
0	190	5.59273164952	0.214392640948
0	194	5.606534518363	0.174987026357
0	196	5.644430714791	0.04619810001
0	200	5.755770207976	0.045210206022
0	206	5.842176288183	0.084442779353
0	210	5.899908719264	0.137473231664
0	214	6.345358403882	0.462218395662
0	216	6.356121914698	0.089828309432
0	220	6.416662926746	0.023430151878
0	224	6.531786438861	0.017591354543
0	230	7.263281397856	0.105874271509
0	232	7.292489451183	0.030452422401
0	236	7.389038948131	0.062794158099
0	240	7.431526211072	0.028027700848
0	244	7.538034944727	0.017312745615
0	248	7.581917887682	0.011695540979
0	254	7.811809762602	0.106807219715
0	256	7.826680989527	0.075891745435
0	260	7.953473543736	0.021888059651
0	264	8.336049666881	0.046001395774
0	272	8.592433762584	0.172033165772
0	274	8.602648250736	0.180607904512
0	278	8.784630142664	0.245577564341
0	280	8.794733620195	0.121303317982
0	290	9.477164052852	0.374903145958
0	296	9.540397712492	0.185498249503
0	300	9.916590440942	0.476180946753
0	302	10.009438290632	0.562149565272
0	308	10.143862817847	0.62458046609
0	310	10.147860447753	0.626155280618
0	312	10.181101471849	0.58945089805
0	316	10.19390714838	0.13526815984
0	318	10.229024757318	0.116935433348
0	320	10.241663620961	0.050896742867
0	324	10.369061796166	0.038270094886
0	328	10.639188602496	0.053488437576
0	332	10.892799319038	0.006629740148
0	338	11.033415985367	0.117918952707
0	340	11.117025738564	0.101587483976
0	344	11.286668601299	0.03084148401
0	348	11.4152527648	0.074075895045
0	352	11.649311783434	0.009865030842
0	362	12.030072857654	0.085789564107
0	366	12.294998450522	0.340302699094
0	368	12.333354471932	0.339617870641
0	372	12.443439062941	0.44857437157
0	374	12.457572134297	0.241028124806
0	378	12.583565515308	0.242007827315
0	382	12.617730932011	0.05521934744
0	384	12.637965975868	0.038552264446
0	388	12.748590630409	0.088312904196
0	392	12.758884660069	0.00203124588
0	402	12.955057791668	0.176574107241
0	404	12.955528445717	0.121637053765
0	406	13.068791859914	0.215899487214
0	410	13.100264025999	0.146201689441
0	416	13.233139813374	0.133096438404
0	422	13.560654131145	0.419769147587
0	424	13.589256228396	0.38022274642
0	426	13.675095525179	0.296739114088
0	430	13.764754612258	0.325876944376
0	434	13.849676693414	0.139150996429
0	436	13.874918692703	0.042153948116
0	444	14.404573738092	0.305228165688
0	446	14.463836140837	0.227737612809
0	448	14.651182128823	0.343518073475
0	454	14.889048702062	0.120223856725
0	456	14.924350715389	0.140702672369
0	462	15.126558490503	0.168092220455
0	466	15.177060365278	0.154907395636
0	472	15.390010304885	0.232823493222
0	474	15.477063887518	0.285387818727
0	478	15.690546932516	0.453782202636
0	482	15.80848522588	0.167996041634
0	486	15.93767615276	0.190643599262
0	492	16.00725609885	0.130883359256
0	500	16.319802934616	0.352006062466
0	504	16.423082635681	0.42383889453
0	506	16.478222234694	0.418701197752
0	512	16.571462522735	0.396207057934
0	514	16.57340050087	0.32085247107
0	518	16.609293222457	0.280529866781
0	520	16.717225242323	0.237376664575
0	524	16.751485204793	0.230876859135
0	526	16.84772271037	0.269078082321
0	528	16.903718817377	0.159116684544
0	534	17.012053243272	0.014557397845
0	538	17.047475656497	0.036954159251
0	542	17.131864503756	0.109712275961
0	548	17.221237411587	0.146641822139
0	550	17.306645385151	0.135743557412
0	552	17.412546323689	0.237540085747
0	562	17.697295456322	0.105584960866
0	566	17.753756506434	0.11559039992
0	568	17.980619905703	0.312444019792
0	570	18.026437194099	0.339986073157
0	572	18.083683349242	0.384953754518
0	584	18.417758231708	0.222491465723
0	590	18.581847989501	0.350393313929
0	592	18.703549939035	0.379686040317
0	594	18.714111203398	0.318958484881
0	598	18.966039416406	0.558300877617
0	604	19.091300168897	0.631440151395
0	620	19.767839220891	1.231963689262
0	622	19.784026229562	1.027382763724
0	624	19.986617111272	0.947952370664
0	626	20.004349668787	0.961090978633
0	628	20.099946311179	0.971497469758
0	630	20.11316468214	0.962811208493
0	640	20.301557570799	0.970025282479
0	648	20.466229480932	0.894458813149
0	652	20.550417577105	0.915046563946
0	654	20.602704580114	0.949238645732
0	656	20.609872118545	0.952351769897
0	658	20.729415975173	0.585914005868
0	660	20.789845882358	0.590271205084
0	664	20.917879302739	0.652921770088
0	670	21.11915657636	0.847969537447
0	682	21.49015263555	1.164376175262
0	686	21.683810359299	1.356021767092
0	688	21.684988682491	1.325720573184
0	690	21.729613964543	1.196610565397
0	692	21.860543800945	0.981386991547
0	694	21.879373298467	0.833861526826
0	698	21.952986408466	0.857721131706
0	700	21.958573413755	0.782612874975
0	702	21.980887334565	0.755249325064
0	704	21.982756881607	0.733379331211
0	708	22.140598153818	0.868718329278
0	712	22.165948724332	0.819357218515
0	714	22.208314434468	0.612599201398
0	722	22.471536320723	0.529675773044
0	726	22.593416001057	0.539098807251
0	728	22.596651681522	0.433378804437
0	730	22.614647415677	0.26767479144
0	732	22.711795631486	0.281639034904
0	734	22.797887995154	0.361529449877
0	736	22.825054802188	0.244579748126
0	744	23.438105826212	0.272134825591
0	746	23.533288796966	0.330001659749
0	750	23.609996762423	0.270318045775
0	752	23.699134620114	0.119795267367
0	756	23.877079137536	0.130978537136
0	760	24.184041370052	0.03738864959
0	766	24.294396839139	0.050786512269
0	770	24.317949296481	0.045688624869
0	774	24.338552501329	0.036099996143
0	780	24.627460060519	0.295384443077
0	782	24.761994803842	0.32876173335
0	784	24.829419260806	0.323984711931
0	788	24.952973266933	0.025801276394
0	796	25.093459304074	0.029350765192
0	798	25.099437400366	0.024630346685
0	800	25.156427156897	0.074651419762
0	804	25.199436363417	0.037366979439
0	808	25.536695605687	0.119185810365
0	812	25.914554778014	0.047441629033
0	816	26.002282671103	0.019796773533
0	820	26.078821819406	0.002498835331
0	824	26.314687967608	0.006961767107
0	830	26.584911857972	0.113753850554
0	832	26.645369979806	0.096064284558
0	836	26.761860340867	0.07691198011
0	844	27.024019602248	0.226984001578
0	854	27.487984854885	0.540444861804
0	856	27.512433957089	0.488822361681
0	858	27.62122440045	0.524552855394
0	860	27.651784890631	0.270843165075
0	862	27.653871612492	0.255218362989
0	866	27.795909958051	0.366014539162
0	868	27.834478727456	0.14855571407
0	872	28.016028103507	0.048363838749
0	878	28.180956466665	0.088750192848
0	888	28.358770800348	0.219455763148
0	890	28.457921229638	0.230602071658
0	894	28.664003353726	0.436677553519
0	896	28.695960819213	0.423783423748
0	902	28.855932763397	0.517254868446
0	904	28.876467540271	0.277898003615
0	912	29.18178600723	0.446529552493
0	914	29.298097335573	0.489755527311
0	916	29.32236918494	0.434767007108
0	922	29.616817212682	0.542655482313
0	924	29.748068011979	0.642629466085
0	926	29.777363157828	0.417195013461
0	930	29.801355509772	0.396015843222
0	934	29.874378276296	0.090187144776
0	936	29.876978050815	0.016204286624
0	942	30.033228359383	0.023252501838
0	944	30.088512196448	0.058511381955
0	948	30.23418514627	0.046867647598
0	956	30.374305106038	0.062282930976
0	958	30.406826707836	0.065774175401
0	960	30.495205273439	0.129389781771
0	966	30.762988552575	0.199403920128
0	968	30.775491811567	0.046945584664
0	976	30.936213871122	0.072852384273
0	978	30.950378074602	0.048112694135
0	982	31.076559341951	0.151222588583
0	984	31.126987335276	0.055370660486
0	988	31.229598929145	0.083337824065
0	992	31.386738589803	0.02024587637
0	996	31.409649609496	0.015647577038
0	1002	31.482589007493	0.066954059086
0	1004	31.526534546542	0.094898723342
0	1016	31.867350340519	0.282063594842
0	1020	32.012305818162	0.423307917498
0	1026	32.150402127729	0.396483065335
0	1036	32.384451323795	0.618872139997
0	1038	32.393162182121	0.598159227206
0	1044	32.473501358388	0.512500427535
0	1046	32.56132286626	0.442446784411
0	1050	32.888172506342	0.763693895256
0	1052	32.922724464713	0.770087151716
0	1054	32.950277258417	0.757061379639
0	1056	32.960845975827	0.631919879546
0	1058	32.962502585269	0.625762945214
0	1062	33.227758436821	0.793681874099
0	1068	33.338599412242	0.903408886595
0	1072	33.49238228369	0.842393005505
0	1076	33.525473271808	0.376767462155
0	1078	33.613761326304	0.319172659848
0	1080	33.620370527373	0.301728797507
0	1082	33.686851302328	0.282019994849
0	1092	34.066253680637	0.557194485382
0	1098	34.275409337899	0.580468741145
0	1100	34.316682324572	0.509828305186
0	1108	34.64257442229	0.806150504238
0	1110	34.668932133574	0.759634700888
0	1118	34.967152201121	0.804548115509
0	1122	35.250816220459	1.0068758946
0	1124	35.411362096766	1.016553331439
0	1126	35.510908461103	1.03619859738
0	1130	35.718284607413	1.095629088126
0	1132	35.752959937792	1.047572273963
0	1136	35.941970107602	1.013210646615
0	1140	36.038171300261	1.083480293283
0	1142	36.039503824744	0.906703719848
0	1144	36.082157405948	0.51019842136
0	1146	36.098190815397	0.288301962257
0	1150	36.498985780884	0.507168656165
0	1152	36.56406551512	0.068025259251
0	1160	36.73291568735	0.068794347846
0	1166	36.834934396145	0.170326298082
0	1170	36.880913527923	0.178625682092
0	1172	36.895636031654	0.129932118427
0	1178	37.068299369628	0.235514536002
0	1180	37.089352698448	0.21413627579
0	1182	37.160957230247	0.224215050473
0	1184	37.186358368082	0.234186559835
0	1188	37.436184636726	0.010296836372
0	1196	37.686606292995	0.198189034111
0	1206	38.047500393493	0.458026778269
0	1212	38.371496690183	0.731503879193
0	1218	38.608535448244	0.781907314011
0	1220	38.757278423678	0.867054899932
0	1222	38.797796711912	0.854155267437
0	1224	38.806254661088	0.801414316551
0	1226	38.858551426454	0.810595813302
0	1228	38.884978472868	0.657907000013
0	1230	38.899191024007	0.359330934873
0	1232	38.904681761262	0.317601382793
0	1240	39.08297833783	0.12931478588
0	1242	39.084127662851	0.128778519952
0	1246	39.23134807865	0.184508093645
0	1248	39.247241396616	0.156812345343
0	1252	39.356041534307	0.008286227292
0	1256	39.391764286985	0.009387454728
0	1260	39.629631026561	0.111488742191
0	1264	39.745850580298	0.028152402247
0	1268	39.840171294524	0.054565771477
0	1272	40.034491647089	0.08150183309
0	1282	40.362349949343	0.197005756559
0	1288	40.492194512903	0.269672890207
0	1290	40.523710515775	0.289004803006
0	1294	40.537807304217	0.267593366658
0	1296	40.543503957464	0.165730515303
0	1298	40.579400089302	0.123965682656
0	1302	40.609797245225	0.074046493941
0	1304	40.670703690757	0.061340248722
0	1310	40.813567563823	0.114974138775
0	1312	40.932517188956	0.163912911384
0	1316	41.031725682327	0.033340333838
0	1320	41.114357605289	0.047791798751
0	1324	41.296997117733	0.019985553792
0	1332	41.517827082019	0.155374550203
0	1334	41.523679871914	0.150386870808
0	1338	41.643081208974	0.140316978848
0	1342	41.793902732137	0.263367985376
0	1352	41.944144011508	0.188115052642
0	1354	41.974176519537	0.080904686201
0	1356	42.02098716486	0.104139905216
0	1358	42.109563229463	0.184025676605
0	1360	42.141421614251	0.214715812272
0	1366	42.240174883466	0.046339002754
0	1368	42.262121699555	0.051095456277
0	1372	42.453873563803	0.061591928378
0	1376	42.707939273429	0.00456380495
0	1384	43.014924471509	0.160841784909
0	1386	43.022932357103	0.087855553665
0	1388	43.096086891016	0.084938232399
0	1392	43.304965751852	0.036645129183
0	1398	43.434915197038	0.08616674918
0	1406	43.755396079999	0.34239911001
0	1414	43.859120589409	0.423168093912
0	1416	43.862720872384	0.349379357947
0	1418	43.919003392566	0.221960067856
0	1422	43.990341820846	0.195750692794
0	1426	44.067167155033	0.251672607736
0	1436	44.181546692945	0.347417875387
0	1438	44.214063779994	0.254140269841
0	1440	44.227859103187	0.174954507494
0	1446	44.277728336474	0.177536832147
0	1452	44.591011285429	0.471738339086
0	1454	44.611729803654	0.471553011321
0	1458	44.846053796663	0.689246585759
0	1460	44.924537498622	0.663937714586
0	1462	44.985585783122	0.713370302409
0	1472	45.199327952164	0.63743049979
0	1474	45.260688373138	0.68839688143
0	1478	45.389484570646	0.623833239044
0	1484	45.440404819333	0.423157134908
0	1488	45.674791783413	0.645769756273
0	1494	45.791918152908	0.696217056189
0	1500	45.912189531291	0.73957160914
0	1504	45.951897626293	0.6751233063
0	1506	46.093275959247	0.665344698779
0	1508	46.194352875557	0.763128563037
0	1510	46.221799227757	0.632832263467
0	1512	46.239298732579	0.4755445429
0	1518	46.398454344858	0.633522422811
0	1524	46.718279842535	0.909117967735
0	1528	46.779554387021	0.938581340052
0	1532	46.868954527289	0.943978403986
0	1534	47.063952218474	0.770207068437
0	1536	47.125057974603	0.73339059689
0	1544	47.428452231843	1.02447862697
0	1548	47.514195742104	0.993580830304
0	1550	47.686102673283	0.926935026902
0	1554	47.925620652222	1.145868370556
0	1556	48.094644147698	0.728871987191
0	1558	48.112009804019	0.735577757593
0	1562	48.211137754595	0.822799124991
0	1564	48.2619597	0.753134929531
0	1566	48.268436269279	0.401797939931
0	1570	48.323606630538	0.125695766508
0	1572	48.35353946878	0.084458813071
0	1578	48.614254062447	0.189072915443
0	1580	48.617641247971	0.029773879305
0	1592	48.951248174389	0.319376187268
0	1594	48.995155872948	0.347975056971
0	1596	49.039271354021	0.321678281242
0	1598	49.040917682419	0.263659495279
0	1600	49.061402909134	0.193068949084
0	1604	49.143623515655	0.051292699183
0	1614	49.449465151982	0.264918826223
0	1618	49.459958426715	0.138578635726
0	1628	49.750550387081	0.316430357788
0	1634	49.954179805808	0.507619276118
0	1636	50.014723183972	0.556577700799
0	1640	50.054279744012	0.589223110821
0	1642	50.080773237776	0.604855708167
0	1648	50.176085491603	0.667681035106
0	1650	50.179448883695	0.451499368495
0	1652	50.181021796072	0.364401878479
0	1656	50.237022633405	0.334045328089
0	1658	50.244072828241	0.215174463014
0	1660	50.273100169753	0.149814713499
0	1662	50.298095251418	0.170849316957
0	1664	50.327289858591	0.095900499743
0	1668	50.422367597518	0.014047571696
0	1672	50.466167120861	0.001210924506
0	1676	50.558270401508	0.012271500732
0	1686	51.122065787611	0.096359269629
0	1692	51.488021999457	0.428646370334
0	1702	51.952049999052	0.836403810656
0	1708	52.004653078628	0.883398702024
0	1710	52.022440754414	0.856646971314
0	1712	52.124262512295	0.744756568208
0	1716	52.191656856717	0.614728901381
0	1724	52.646439241903	0.946905084878
0	1726	52.653192657591	0.898575149268
0	1728	52.806086544662	1.006461603165
0	1730	52.840110266623	0.846245997156
0	1734	52.867740785916	0.86511031759
0	1738	52.976361117032	0.835651137554
0	1740	53.004605788228	0.806390285412
0	1744	53.114225044329	0.795417544426
0	1746	53.187062801632	0.554378389838
0	1750	53.242243013796	0.378709973522
0	1752	53.323140983309	0.37698627647
0	1754	53.356975595179	0.343821673628
0	1760	53.479588816402	0.258940538329
0	1762	53.533178695936	0.151697302425
0	1764	53.577892686196	0.125292402533
0	1772	54.045486432546	0.176408739219
0	1778	54.304469047096	0.38124269795
0	1780	54.309178974202	0.325145839388
0	1782	54.335657201536	0.19058169778
0	1784	54.378507961954	0.16189183123
0	1792	54.717635297541	0.168721828876
0	1804	55.140936877174	0.55633858516
0	1810	55.488222447764	0.845918768834
0	1816	55.723555924571	0.93791345242
0	1818	55.758732663114	0.70024533096
0	1832	56.241704687911	1.167732735375
0	1834	56.270395597449	1.163246918928
0	1836	56.281590051563	1.143347902336
0	1844	56.583086878782	1.36415878131
0	1848	56.609668533684	1.124194734228
0	1850	56.726712106685	1.188038179709
0	1852	56.732724943598	1.135668719851
0	1854	56.863921251706	0.968589297837
0	1862	57.07739149116	1.167559769739
0	1864	57.109196945679	1.079689353358
0	1866	57.156848527776	1.110240581977
0	1872	57.203736343339	1.100872914543
0	1876	57.341882251324	1.191959467773
0	1878	57.369037830492	1.082339598141
0	1882	57.387894302917	0.910713203003
0	1888	57.447549294605	0.886242733572
0	1894	57.483857178623	0.880392063805
0	1898	57.666609805405	0.802597584824
0	1900	57.693756802048	0.777704798822
0	1902	57.763550556931	0.686590346754
0	1910	58.049293091713	0.875073703874
0	1914	58.14980465657	0.948580169468
0	1922	58.351763106892	1.055111955633
0	1924	58.633454279888	1.248816087988
0	1932	58.772390130583	1.33628251839
0	1934	58.892645865054	1.453546881374
0	1942	59.236740269813	1.778304176674
0	1948	59.755253212116	2.279849945449
0	1952	59.815368676754	2.192279147963
0	1954	59.822719314496	2.051468200579
0	1958	59.857362647245	1.972579324377
0	1960	59.873891948477	1.855373637803
0	1962	59.927932218237	1.838214239372
0	1964	59.94200673378	1.709370980507
0	1966	60.03467059381	1.74499408018
0	1968	60.082928115326	1.780604066107
0	1974	60.308675794402	1.619313815137
0	1978	60.65223813365	1.953853137285
0	1984	60.73139904311	2.030675331591
0	1986	60.763533073397	1.595900151029
0	1988	60.853238374808	1.666317847572
0	1994	61.080309385548	1.857466497959
0	1998	61.132520515989	1.880548175917
0	2002	61.212834193181	1.856786810849
0	2004	61.24453193117	1.44215555153
0	2006	61.305310407582	1.464673102132
0	2008	61.356678968908	1.094954037338
0	2010	61.385235860958	1.120411564057
0	2012	61.455730793096	0.928148890448
0	2014	61.492892368579	0.817339818665
0	2016	61.539578802935	0.824976246962
0	2022	61.614016629075	0.629114928693
0	2024	61.752884356462	0.764756981739
0	2026	61.793456990849	0.687426214999
0	2032	62.051368303928	0.897362095381
0	2036	62.249649561955	0.685852365116
0	2038	62.254641122198	0.66869002061
0	2042	62.283896182317	0.419841953221
0	2044	62.342979704357	0.430879691486
0	2048	62.354031292017	0.177891760693
0	2050	62.396875394896	0.134531963347
0	2056	62.531620277265	0.183520743231
0	2058	62.64572461069	0.238932067382
0	2060	62.743112469838	0.245694508399
0	2064	62.968801883544	0.123969808062
0	2068	63.135800574778	0.022931717164
0	2072	63.290332887306	0.041809165894
0	2078	63.483574146498	0.112776043357
0	2084	63.694964827963	0.228781984494
0	2088	63.773420497655	0.269030492259
0	2090	63.806646560013	0.282998461734
0	2092	63.809716737314	0.05326285385
0	2102	64.00131915906	0.123903650738
0	2104	64.002110693711	0.081955291601
0	2106	64.048740396355	0.054593823622
0	2110	64.124357021134	0.127230463471
0	2120	64.379604670489	0.284486990164
0	2122	64.38898020925	0.24009197272
0	2124	64.441058095737	0.208340138478
0	2126	64.443519460144	0.19078601191
0	2128	64.485467392491	0.166221727447
0	2134	64.700547751071	0.097347254365
0	2136	64.733268789204	0.129042530261
0	2140	65.044094106246	0.02354058665
0	2144	65.1737381927	0.012296256689
0	2150	65.260078879574	0.086071470751
0	2154	65.378911795603	0.163843423786
0	2158	65.490372895903	0.182362509534
0	2166	65.787693729851	0.325136514789
0	2168	65.787964417309	0.266314237082
0	2170	65.892148863791	0.339588499603
0	2172	65.983876043482	0.358510190185
0	2176	66.14363893163	0.088852871233
0	2182	66.599211717103	0.329064883026
0	2184	66.600913279476	0.03524913307
0	2190	66.816951947485	0.119231577422
0	2194	66.984980187493	0.217538778775
0	2200	67.056275835406	0.150177459238
0	2202	67.096917122081	0.065319710779
0	2204	67.253382777151	0.218241548509
0	2208	67.347758050005	0.010230178101
0	2212	67.489700019908	0.058346017231
0	2218	68.071908423002	0.073386996702
0	2220	68.190311196637	0.133823407425
0	2224	68.263218625724	0.009528448287
0	2228	68.353702387566	0.025845924872
0	2232	68.591084635959	0.052814399072
0	2236	68.728853087547	0.097629202297
0	2240	69.11115159668	0.218002044716
0	2246	69.244138062961	0.096449976176
0	2250	69.25846293334	0.063021039197
0	2262	69.652608801803	0.394979565888
0	2274	69.858014050189	0.505982840419
0	2280	69.927874406884	0.459197320896
0	2284	70.18342617855	0.657509362449
0	2286	70.261379681433	0.641722610533
0	2292	70.518172944303	0.883050435878
0	2302	70.695308276235	0.923191904987
0	2310	71.040409289171	1.227679981985
0	2314	71.292711035306	1.474710460025
0	2316	71.296380942334	1.463571230472
0	2318	71.315590499949	1.469277194522
0	2320	71.364878376786	1.472903757532
0	2328	71.668831535799	1.742888224243
0	2334	71.704503161066	1.679280738678
0	2336	71.721994187076	1.412583438328
0	2342	71.939417477789	1.525876111888
0	2346	71.998547756346	1.475668893477
0	2356	72.237009290669	1.681506527171
0	2358	72.254472070317	1.594615463519
0	2364	72.362682258765	1.683905005627
0	2366	72.420711217563	1.692863860915
0	2368	72.428668233072	1.582952294295
0	2370	72.54789345728	1.64837800171
0	2372	72.576315431633	1.386513808764
0	2374	72.580357589398	1.137622323521
0	2376	72.586539204263	1.075471604722
0	2378	72.592841548689	0.994293142582
0	2382	72.831148376008	1.155352993199
0	2390	72.965811104862	1.265561476188
0	2392	73.194150508304	1.425440161061
0	2398	73.30580236566	1.512167624072
0	2402	73.381079330864	1.436725117423
0	2404	73.417384046303	1.384199569892
0	2412	74.036975058175	1.957411279919
0	2414	74.08194639497	2.002010093897
0	2418	74.145556740407	1.956471954749
0	2420	74.193077684286	1.878329827969
0	2430	74.581942156563	2.266569924309
0	2434	74.601137946758	1.86408825575
0	2436	74.64088585475	1.773006693367
0	2440	74.754938302246	1.845427674884
0	2442	74.761467661811	1.825125147449
0	2444	74.854925703446	1.606622399643
0	2446	74.919866776125	1.627165970752
0	2450	74.953274284431	1.598629064466
0	2452	74.980509407066	1.505556698102
0	2458	75.05276963082	1.312229654072
0	2460	75.098644761085	1.290100549155
0	2462	75.159620978371	1.034980998928
0	2464	75.200791036158	0.968548756325
0	2468	75.553106170281	1.253033256691
0	2472	75.567428497429	1.159547299867
0	2474	75.577610061627	1.117200129331
0	2476	75.619676828867	1.030856997816
0	2478	75.70908741768	0.993494667327
0	2480	75.816726463622	0.894206687013
0	2482	75.86735286033	0.88297937772
0	2496	76.59069970561	1.601731567267
0	2502	76.63406965265	1.1440482818
0	2504	76.761869865567	1.200512572713
0	2514	76.863365761404	0.96903791396
0	2516	77.031059234703	1.002947364771
0	2528	77.404974082507	1.339638677783
0	2530	77.625514162887	1.460547480551
0	2534	77.770144920103	1.227778531443
0	2536	77.889960058887	1.333138678095
0	2538	77.93083182431	1.335878122552
0	2540	77.946811802353	1.341583605302
0	2542	77.953280162868	1.17413334148
0	2544	77.980974385401	1.19919627833
0	2550	78.037587340571	1.238093407512
0	2554	78.111401014826	1.275672481348
0	2556	78.25971835563	1.17815984336
0	2562	78.578506772857	1.473220448434
0	2566	78.590986082083	1.417553234486
0	2568	78.602303415322	1.381684493286
0	2570	78.691388795511	1.365693217704
0	2576	78.828194197649	1.171753050545
0	2578	79.016680659069	1.021056635497
0	2592	79.291305846091	1.289209387749
0	2594	79.701299275358	1.590379244139
0	2596	79.752348791628	1.374574822519
0	2600	79.800206448735	1.240228181818
0	2602	79.81620087007	1.22770269862
0	2604	79.931698323427	1.169422617103
0	2608	80.038631429264	1.251207984653
0	2616	80.236726958876	1.174472647877
0	2618	80.246958806833	1.183627929354
0	2622	80.315829891229	1.24115100537
0	2624	80.402837882266	1.212306700443
0	2626	80.430486650676	1.182117963706
0	2628	80.449002256025	1.188447716585
0	2630	80.645314584981	0.881327811126
0	2632	80.651346387359	0.615083323109
0	2634	80.714951434471	0.64073991752
0	2638	80.727262479963	0.576141112228
0	2644	80.78833789745	0.558802138548
0	2656	81.179351974415	0.864607774034
0	2660	81.234465769246	0.509425188543
0	2670	81.429044227638	0.691365916631
0	2672	81.441522979874	0.698989714188
0	2674	81.473165718993	0.651302877207
0	2678	81.5248824117	0.629463497672
0	2680	81.575933669294	0.648327984073
0	2684	81.687220050455	0.752333449213
0	2686	81.729489029262	0.778737036041
0	2688	81.854583895328	0.670647835348
0	2692	81.956523414135	0.711354786424
0	2694	82.007466265157	0.704662619789
0	2698	82.063987428642	0.758517545032
0	2704	82.159316021764	0.797493174299
0	2706	82.166577627575	0.674728997515
0	2708	82.339403564872	0.72974074614
0	2712	82.445368059193	0.541308539481
0	2718	82.574955840843	0.537202552755
0	2720	82.651942034424	0.56718660155
0	2722	82.663649038357	0.533279321722
0	2726	82.715574410845	0.370206173904
0	2728	82.767556605333	0.242760634217
0	2730	82.806276352057	0.241867577655
0	2732	82.809317151433	0.094727302197
0	2738	82.947195297749	0.133656841732
0	2740	82.958824464426	0.084054910366
0	2746	83.058810746184	0.093218674057
0	2752	83.180286317041	0.204003930015
0	2754	83.28101358588	0.173253214424
0	2760	83.600779461621	0.489409154701
0	2762	83.611682647983	0.236214316139
0	2768	83.813549023976	0.300551327924
0	2770	83.816511499206	0.037198340541
0	2772	83.893065407433	0.113607252543
0	2776	84.16342250632	0.051792344507
0	2780	84.567194211359	0.07427237497
0	2784	84.729294865696	0.045428757706
0	2788	85.285518719375	0.021142117498
0	2792	85.318969913641	0.001930810519
0	2796	85.616385117969	0.073012202026
0	2802	85.905095381435	0.185008921987
0	2804	85.951810704081	0.078742070327
0	2808	86.018705527945	0.025213967643
0	2812	86.045959744405	0.008396004003
0	2816	86.138956575925	0.008917108227
0	2826	86.193584514685	0.02502532804
0	2828	86.204122128748	0.034515594546
0	2830	86.234916008306	0.062278139488
0	2832	86.241759895844	0.050423724693
0	2836	86.284648047486	0.006785587805
0	2844	86.502073609803	0.193986175959
0	2846	86.519761680415	0.156327153258
0	2848	86.601787579676	0.23155098678
0	2852	86.809278397874	0.148481407405
0	2856	86.98124150168	0.060955918084
0	2860	87.210021000957	0.016649019392
0	2864	87.264086215623	0.022263885204
0	2868	87.44832133014	0.056736811967
0	2876	87.533524252913	0.075127237367
0	2880	87.576516473187	0.075027975702
0	2890	87.72860406395	0.218354061204
0	2892	87.867642996673	0.291643501403
0	2900	88.129663154361	0.494678216041
0	2902	88.132601149089	0.476637570765
0	2904	88.358641193827	0.650945396237
0	2906	88.408492827018	0.68873636658
0	2914	88.619172039606	0.653567019939
0	2918	88.736543812393	0.638771263329
0	2932	89.173543787536	1.050081375112
0	2938	89.3159568891	0.892235518771
0	2942	89.361298230933	0.833567932124
0	2946	89.430825809032	0.830061187737
0	2948	89.478048683896	0.753899424407
0	2950	89.523447828571	0.764130949347
0	2952	89.553680642376	0.698254721209
0	2956	89.62219265017	0.749792476404
0	2960	89.736681295117	0.837426468695
0	2962	89.769162975582	0.783309099437
0	2968	89.843476541013	0.84531315368
0	2970	89.855962626797	0.628652637244
0	2972	89.873379548908	0.5856584255
0	2974	89.878173268866	0.558607750525
0	2978	90.231297408915	0.806069677977
0	2980	90.231684191234	0.641610148534
0	2982	90.251356260097	0.548599984974
0	2984	90.346254894775	0.539680732581
0	2986	90.354742035879	0.525793917582
0	2992	90.568361428511	0.600271394293
0	2996	90.695522428743	0.275790699301
0	3002	91.034815500207	0.502522796892
0	3006	91.105669107751	0.525609083837
0	3010	91.141394287278	0.366575461316
0	3012	91.221134134861	0.229101987524
0	3016	91.488236632212	0.431809834918
0	3018	91.561792307706	0.440903461962
0	3020	91.592881514016	0.140965309522
0	3030	91.815493606119	0.209881842857
0	3032	91.862002180494	0.252375846137
0	3034	91.862140611755	0.18591047036
0	3036	91.890600630154	0.202538548735
0	3040	92.187398844543	0.038306806708
0	3048	92.447573815948	0.195741839224
0	3050	92.50891562256	0.133253161486
0	3054	92.567720003728	0.137663406156
0	3056	92.608682719736	0.046414692086
0	3062	92.876653101825	0.212593056994
0	3066	93.166744005943	0.323854070711
0	3078	93.648213805916	0.528891045488
0	3080	93.695493160387	0.514006913105
0	3086	94.034067250677	0.581730546399
0	3090	94.191031086138	0.730618745796
0	3096	94.303636365908	0.704420110802
0	3100	94.331725481458	0.700978577159
0	3104	94.356118448444	0.632482899023
0	3106	94.37427637021	0.472685697064
0	3112	94.630355761687	0.564038207841
0	3114	94.665180625105	0.445492715992
0	3116	94.725528504348	0.426700259227
0	3118	94.793642032158	0.468929806084
0	3120	94.944227146466	0.591899828213
0	3128	95.130167803708	0.6858334396
0	3130	95.145142324534	0.631697203682